/*--------------------------------*- C++ -*----------------------------------*\
  =========                 |
  \\      /  F ield         | OpenFOAM: The Open Source CFD Toolbox
   \\    /   O peration     | Website:  https://openfoam.org
    \\  /    A nd           | Version:  13
     \\/     M anipulation  |
\*---------------------------------------------------------------------------*/
FoamFile
{
    format      ascii;
    class       surfaceScalarField;
    location    "4";
    object      phi;
}
// * * * * * * * * * * * * * * * * * * * * * * * * * * * * * * * * * * * * * //

dimensions      [1 0 -1 0 0 0 0];

internalField   nonuniform List<scalar> 
10325
(
0.0840003
1.2104e-10
0.0840001
8.47041e-09
0.0840011
8.24149e-09
0.0839985
8.53018e-08
0.0840045
6.95842e-08
0.0839902
5.64196e-07
0.0840226
3.51966e-07
0.0839496
3.33456e-06
0.0840854
2.9666e-06
0.0838386
1.69638e-05
0.0841112
2.98426e-05
0.0836975
0.000100464
0.0836275
0.000301281
0.082395
0.00112454
0.0766926
0.00572097
0.070029
0.00666884
0.0637116
0.00631472
0.0571971
0.00651084
0.0503648
0.00682837
0.0431343
0.00722846
0.0354124
0.00772155
0.0272092
0.00819936
0.0185926
0.00863016
0.00953199
0.00906683
0.00952243
0.0840003
3.0436e-09
0.0840004
7.21808e-09
0.0840002
5.46513e-08
0.0840002
7.18467e-08
0.0839995
3.92919e-07
0.0840011
4.45612e-07
0.0839923
2.48764e-06
0.0840091
2.71293e-06
0.0839615
1.43101e-05
0.0840161
2.12445e-05
0.0839011
7.77752e-05
0.0838679
0.000188177
0.0835012
0.000622391
0.0824032
0.00225232
0.0768072
0.0113104
0.0699894
0.0134897
0.0637536
0.0125474
0.057335
0.0129259
0.0505489
0.0136106
0.0432456
0.0145299
0.0354342
0.0155325
0.0271475
0.0164823
0.0184128
0.0173786
0.00928404
0.0182017
0.018797
0.0840003
1.45788e-09
0.0840001
1.99539e-08
0.0840007
3.80268e-08
0.0839992
1.9529e-07
0.084003
2.91726e-07
0.0839921
1.29273e-06
0.0840181
1.86379e-06
0.0839543
7.89817e-06
0.0840833
1.2528e-05
0.0838332
4.53128e-05
0.084128
9.61043e-05
0.0836932
0.000297162
0.0836671
0.000899606
0.0825039
0.00328652
0.0775683
0.0162673
0.0706442
0.02042
0.0643864
0.0188034
0.0580116
0.0192973
0.0512705
0.0203481
0.0439456
0.0218522
0.0360776
0.023401
0.027681
0.0248756
0.0187908
0.0262812
0.00945962
0.0275397
0.0282496
0.0840003
3.25119e-09
0.0840003
2.01517e-08
0.0840004
6.91792e-08
0.084
1.95728e-07
0.084
5.12962e-07
0.0840003
1.28418e-06
0.083995
3.24046e-06
0.0840048
7.94255e-06
0.0839731
2.0139e-05
0.084006
5.02896e-05
0.0839317
0.000131652
0.0838882
0.0003647
0.0836317
0.00113761
0.082855
0.0040795
0.0791437
0.0199704
0.0721594
0.0274078
0.0657649
0.0251954
0.0593694
0.0256895
0.0526368
0.0270771
0.0453169
0.0291701
0.0373708
0.0313477
0.0288485
0.033393
0.019709
0.0354371
0.00999485
0.037259
0.0382326
0.0840003
3.49848e-09
0.0840003
2.20277e-08
0.0840003
7.55843e-08
0.0840001
2.14274e-07
0.0840002
5.61964e-07
0.0840002
1.4148e-06
0.0839962
3.62988e-06
0.0840051
8.83911e-06
0.0839761
2.2845e-05
0.0840154
5.65515e-05
0.083943
0.000149088
0.0839447
0.000409105
0.0837753
0.00126849
0.0833904
0.00449427
0.0818815
0.0214655
0.0748483
0.0344436
0.0680749
0.0319669
0.0615329
0.0322293
0.0547695
0.0338373
0.0474201
0.0365187
0.0394098
0.0393593
0.0306758
0.0421243
0.0211708
0.0449565
0.0108494
0.0475869
0.049071
0.0840003
4.43799e-09
0.0840004
1.8527e-08
0.0840003
8.87334e-08
0.0840003
1.81441e-07
0.0839995
6.51608e-07
0.0840025
1.25638e-06
0.0839917
4.07976e-06
0.0840195
8.06732e-06
0.0839572
2.44143e-05
0.0840679
5.3434e-05
0.0839209
0.00015034
0.0840852
0.00039406
0.0840162
0.00121481
0.0843799
0.00420425
0.0867343
0.0190853
0.079571
0.0416074
0.0717699
0.0397665
0.0648581
0.0391391
0.0579165
0.0407778
0.0505291
0.0439035
0.0423437
0.0475447
0.0333413
0.0511242
0.0233579
0.0549522
0.0121964
0.0587564
0.0612626
0.0840003
2.83698e-09
0.0840002
2.34716e-08
0.0840008
6.38015e-08
0.0839992
2.26736e-07
0.0840034
4.83418e-07
0.0839937
1.4199e-06
0.0840178
3.20546e-06
0.0839667
8.35182e-06
0.0840808
2.05173e-05
0.0838833
5.01549e-05
0.084199
0.000130594
0.0839114
0.000342922
0.0843866
0.00101982
0.0850359
0.003406
0.0894246
0.0147279
0.0839669
0.0470633
0.0755126
0.0482196
0.0685056
0.0461443
0.0617041
0.0475751
0.054362
0.051248
0.0461328
0.0557709
0.036874
0.0603814
0.0264125
0.0654246
0.0142461
0.0709338
0.0755042
0.0840003
3.81237e-09
0.0840005
1.68723e-08
0.0839999
7.69187e-08
0.0840014
1.67788e-07
0.0839982
5.53499e-07
0.0840058
1.1769e-06
0.0839896
3.30333e-06
0.0840261
7.59131e-06
0.0839541
1.94315e-05
0.0840882
4.79401e-05
0.0838955
0.000120658
0.084161
0.000323225
0.0840267
0.000934168
0.0844438
0.00310206
0.0860913
0.0130526
0.0831489
0.0500018
0.0764618
0.0549036
0.0710049
0.0515988
0.0648523
0.0537256
0.0581265
0.0579695
0.0502892
0.063612
0.0411871
0.0694753
0.0305133
0.076111
0.0174125
0.0840436
0.0929129
0.0840003
2.33271e-09
0.0840002
2.27848e-08
0.0840006
5.68611e-08
0.0839996
2.21914e-07
0.0840022
4.337e-07
0.0839953
1.41407e-06
0.0840129
2.84719e-06
0.0839727
8.41466e-06
0.0840636
1.81094e-05
0.0838912
4.98641e-05
0.0841558
0.000118049
0.0838477
0.000323461
0.0841257
0.000917585
0.0840613
0.0030168
0.0849944
0.0121601
0.081981
0.0530058
0.0791704
0.0577129
0.0733221
0.0574454
0.0673674
0.059678
0.0615642
0.0637678
0.0546523
0.0705253
0.0464259
0.0776967
0.0364853
0.0860554
0.0226507
0.0978922
0.115561
0.0840003
3.38787e-09
0.0840004
1.9179e-08
0.0840001
7.12372e-08
0.0840009
1.87223e-07
0.0839986
5.29195e-07
0.0840047
1.24379e-06
0.0839892
3.33995e-06
0.084028
7.67361e-06
0.0839422
2.04427e-05
0.084112
4.77194e-05
0.0838303
0.000126581
0.0841734
0.000323139
0.0838317
0.000932353
0.0840727
0.00300214
0.0845266
0.0115993
0.0830625
0.054483
0.0789703
0.0618074
0.0747136
0.0617018
0.0702461
0.064143
0.0652019
0.0688075
0.0598066
0.0759201
0.0533939
0.0841086
0.0444826
0.094968
0.03144
0.110944
0.147
0.0840003
3.31707e-09
0.0840004
1.98757e-08
0.084
7.32105e-08
0.0840011
1.94557e-07
0.0839986
5.43551e-07
0.0840044
1.32733e-06
0.0839916
3.32057e-06
0.0840206
8.47553e-06
0.0839579
1.9804e-05
0.084073
5.28631e-05
0.0838844
0.00012487
0.0841086
0.00034122
0.0838559
0.000937712
0.0840226
0.00301178
0.084364
0.0111761
0.084984
0.0538709
0.080763
0.0660313
0.0765184
0.0659459
0.0730941
0.067566
0.069356
0.0725425
0.0657369
0.079536
0.0614428
0.0884001
0.0573076
0.0991024
0.0569946
0.111263
0.115044
0.0889524
0.0840003
3.09993e-09
0.0840003
2.11319e-08
0.0840006
6.80514e-08
0.0839998
2.05465e-07
0.0840015
5.09619e-07
0.0839979
1.35831e-06
0.0840051
3.27268e-06
0.0839917
8.35155e-06
0.0840126
2.04853e-05
0.083976
5.13149e-05
0.0840327
0.000129637
0.0839426
0.000336406
0.0840601
0.000935563
0.0840748
0.00291277
0.0847564
0.0105247
0.0890972
0.0495133
0.0845193
0.0706118
0.0797682
0.0707002
0.0762675
0.0710626
0.0734018
0.0754068
0.0708189
0.0821172
0.0688497
0.0903686
0.0685005
0.0994498
0.0729855
0.106774
0.104763
0.0832718
0.0840003
3.32171e-09
0.0840003
1.80793e-08
0.0840003
6.96126e-08
0.0840002
1.77085e-07
0.0840004
5.10094e-07
0.0840003
1.19746e-06
0.0839998
3.21177e-06
0.0840035
7.52715e-06
0.0839917
1.97363e-05
0.0840243
4.71832e-05
0.0839797
0.000122265
0.0840737
0.000309466
0.0840956
0.000853374
0.0844843
0.00257466
0.085969
0.00900006
0.0965376
0.0389429
0.0907687
0.0763842
0.084758
0.0767119
0.0808326
0.0749909
0.0781513
0.0780837
0.076391
0.0838756
0.0760782
0.0906756
0.0783456
0.0971845
0.0837949
0.101329
0.0984598
0.090094
0.0840003
2.53598e-09
0.0840003
1.5844e-08
0.0840005
5.50486e-08
0.0839999
1.54767e-07
0.0840015
4.10643e-07
0.0839985
1.01568e-06
0.0840066
2.59865e-06
0.0839919
6.1959e-06
0.0840299
1.57924e-05
0.0839716
3.77617e-05
0.0841173
9.63676e-05
0.0840036
0.000239096
0.0844438
0.000639083
0.084977
0.00183589
0.0880482
0.0060358
0.102478
0.0244828
0.0976303
0.0812308
0.0930194
0.0813232
0.0869401
0.0810646
0.0837137
0.0813142
0.0824364
0.0851477
0.0828933
0.0902186
0.0854494
0.0946237
0.0901833
0.0965958
0.0934337
0.0952162
0.0840003
1.94026e-09
0.0840003
1.44244e-08
0.0840005
4.33467e-08
0.084
1.41317e-07
0.0840013
3.23948e-07
0.0839985
9.21826e-07
0.0840062
2.05973e-06
0.0839908
5.55687e-06
0.084032
1.28054e-05
0.0839562
3.3011e-05
0.0841254
7.96621e-05
0.0839236
0.000202615
0.0843324
0.000525835
0.0843924
0.00148285
0.0858698
0.00475933
0.0918954
0.018361
0.0990073
0.0741339
0.0957313
0.0845991
0.0915347
0.0852603
0.0887601
0.08409
0.0877902
0.0861114
0.0884992
0.0895134
0.0908398
0.092279
0.0946794
0.0927561
0.0893577
0.0987523
0.0840003
2.12889e-09
0.0840004
1.1085e-08
0.0840003
4.43216e-08
0.0840005
1.07955e-07
0.0839999
3.26067e-07
0.0840017
7.21226e-07
0.0839974
2.02381e-06
0.0840099
4.52118e-06
0.0839829
1.21251e-05
0.0840547
2.80687e-05
0.0839243
7.31029e-05
0.0841812
0.000177633
0.0839346
0.000468055
0.0844345
0.00128588
0.0849347
0.00402304
0.0887301
0.014681
0.0988123
0.0640173
0.0975369
0.0858736
0.0952499
0.0875456
0.092916
0.0864265
0.0921868
0.0868388
0.0930048
0.0886894
0.0950647
0.0902248
0.0980741
0.0897396
0.0862053
0.101238
0.0840003
1.46702e-09
0.0840003
1.09583e-08
0.0840004
3.32507e-08
0.0840002
1.06538e-07
0.0840008
2.4937e-07
0.0839994
7.02271e-07
0.0840037
1.58778e-06
0.083994
4.30523e-06
0.084022
9.83957e-06
0.0839663
2.61453e-05
0.0841039
6.12949e-05
0.0838929
0.00016122
0.0842851
0.000402597
0.0840973
0.00111329
0.0850624
0.00334522
0.0878932
0.011696
0.103678
0.0482515
0.102062
0.0874908
0.0996351
0.0899734
0.096922
0.0891436
0.0961455
0.0876125
0.0967887
0.0880473
0.0984794
0.0885299
0.100789
0.0874312
0.0838749
0.103109
0.0840003
1.33741e-09
0.0840003
7.88664e-09
0.0840003
2.87687e-08
0.0840003
7.71072e-08
0.0840004
2.1217e-07
0.0840005
5.10198e-07
0.0840005
1.32017e-06
0.0840033
3.14615e-06
0.083998
7.94515e-06
0.0840251
1.90952e-05
0.0839895
4.77351e-05
0.0841282
0.000116819
0.0840944
0.000295338
0.0845938
0.000773269
0.0855908
0.00220806
0.0902317
0.00714436
0.11069
0.0277522
0.109106
0.0890785
0.106612
0.0924674
0.10303
0.0927262
0.100767
0.0898739
0.100513
0.0882982
0.101559
0.087489
0.103187
0.0858027
0.0822607
0.104801
0.0840003
1.06175e-09
0.0840003
6.31965e-09
0.0840004
2.27173e-08
0.0840003
6.16785e-08
0.0840006
1.67763e-07
0.0840001
4.06401e-07
0.0840014
1.05059e-06
0.0840007
2.47622e-06
0.0840025
6.35595e-06
0.0840089
1.49126e-05
0.0840057
3.81159e-05
0.0840589
9.12416e-05
0.0840759
0.000232745
0.0843073
0.000592908
0.0848172
0.00165384
0.0868487
0.00516599
0.0952208
0.0193335
0.109665
0.0746197
0.109077
0.093055
0.106984
0.0948204
0.104645
0.092218
0.103912
0.0890277
0.104345
0.087052
0.105366
0.0847846
0.0812258
0.106401
0.0840003
8.32748e-10
0.0840003
5.17572e-09
0.0840004
1.78609e-08
0.0840002
5.05417e-08
0.0840006
1.3214e-07
0.0839999
3.33668e-07
0.084002
8.38224e-07
0.0839985
2.0328e-06
0.084009
5.13397e-06
0.0839917
1.22961e-05
0.0840381
3.13292e-05
0.0839803
7.51253e-05
0.0841423
0.000193591
0.0840682
0.000485714
0.0845956
0.0013355
0.0855795
0.00401375
0.0908147
0.0141754
0.110067
0.0553311
0.111483
0.091641
0.110611
0.0956947
0.108352
0.0944801
0.107082
0.0903013
0.106946
0.0871855
0.107402
0.0843263
0.0806621
0.107964
0.0840003
6.09372e-10
0.0840003
3.9572e-09
0.0840003
1.32516e-08
0.0840003
3.86719e-08
0.0840005
9.82986e-08
0.0840002
2.53085e-07
0.0840014
6.16996e-07
0.0839991
1.53691e-06
0.084008
3.747e-06
0.0839925
9.19023e-06
0.0840472
2.25835e-05
0.0839679
5.52183e-05
0.0842197
0.000137506
0.0840468
0.000343301
0.0848716
0.000902349
0.0859596
0.00256033
0.0920565
0.00829005
0.116339
0.0309715
0.117201
0.090777
0.116256
0.0966443
0.113704
0.0970353
0.110893
0.0931175
0.109807
0.0882712
0.109624
0.0845073
0.0806087
0.109675
0.0840003
4.33409e-10
0.0840003
3.05288e-09
0.0840003
9.73873e-09
0.0840003
2.9737e-08
0.0840004
7.2212e-08
0.0840004
1.95035e-07
0.0840008
4.5117e-07
0.084
1.18254e-06
0.0840044
2.73681e-06
0.0839968
7.02238e-06
0.0840281
1.65443e-05
0.0839822
4.16796e-05
0.0841461
0.000100869
0.0840125
0.000253326
0.0845757
0.000646155
0.0850315
0.00177635
0.0881068
0.0054834
0.0989031
0.0200198
0.117319
0.0723821
0.1184
0.095567
0.116914
0.0985242
0.114074
0.0959584
0.112766
0.0895827
0.111983
0.0852878
0.0809993
0.111595
0.0840003
3.53955e-10
0.0840003
2.17714e-09
0.0840003
7.64753e-09
0.0840004
2.12354e-08
0.0840003
5.66559e-08
0.0840006
1.39555e-07
0.084
3.55052e-07
0.084002
8.55452e-07
0.083999
2.14163e-06
0.0840093
5.17702e-06
0.083995
1.28721e-05
0.0840416
3.13102e-05
0.0839955
7.79139e-05
0.0841723
0.000192992
0.0841519
0.000491322
0.0848263
0.00131153
0.0862631
0.0038668
0.0930542
0.0133207
0.117103
0.0482902
0.119991
0.0926798
0.120695
0.0978206
0.119182
0.0974701
0.115844
0.0929185
0.114506
0.0866282
0.0818687
0.113631
0.0840003
2.4767e-10
0.0840003
1.59281e-09
0.0840003
5.45617e-09
0.0840004
1.55447e-08
0.0840003
4.02737e-08
0.0840005
1.02395e-07
0.0840002
2.49289e-07
0.0840014
6.24617e-07
0.0840002
1.49163e-06
0.0840046
3.74182e-06
0.0840044
8.86381e-06
0.0840159
2.23618e-05
0.0840393
5.29981e-05
0.0840944
0.000134093
0.0842581
0.000327811
0.0847318
0.000855389
0.086207
0.00236075
0.0920967
0.00743934
0.113886
0.0265005
0.124172
0.0823763
0.124111
0.0978781
0.122285
0.0992943
0.118874
0.0963279
0.117261
0.0882411
0.0832953
0.115829
0.0840003
1.84452e-10
0.0840003
1.11391e-09
0.0840003
4.00365e-09
0.0840003
1.08714e-08
0.0840003
2.94459e-08
0.0840005
7.22326e-08
0.0840002
1.81152e-07
0.0840012
4.4381e-07
0.0839998
1.07882e-06
0.0840052
2.68057e-06
0.0839983
6.38104e-06
0.0840258
1.61458e-05
0.0839961
3.80243e-05
0.0841168
9.7398e-05
0.0840719
0.000233243
0.0845141
0.000607527
0.0850383
0.00160715
0.0878138
0.00484845
0.0972233
0.0169908
0.121789
0.0578214
0.125145
0.0945214
0.125881
0.0985553
0.124449
0.0977571
0.120517
0.0921786
0.0855222
0.118287
0.0840003
1.29327e-10
0.0840003
7.66717e-10
0.0840003
2.76424e-09
0.0840003
7.47404e-09
0.0840004
2.0385e-08
0.0840003
4.88112e-08
0.0840004
1.26919e-07
0.0840006
2.9436e-07
0.0840006
7.58212e-07
0.0840028
1.75293e-06
0.0840003
4.47818e-06
0.0840181
1.04397e-05
0.0839985
2.63765e-05
0.0841084
6.25832e-05
0.0840302
0.000156857
0.0845095
0.000385813
0.0847839
0.00100297
0.0871558
0.00279258
0.0950161
0.00891721
0.122331
0.030533
0.129432
0.0874255
0.129573
0.0984142
0.127382
0.0999461
0.123961
0.0955956
0.0880818
0.121413
0.0840003
8.31328e-11
0.0840003
5.48163e-10
0.0840003
1.81653e-09
0.0840003
5.34579e-09
0.0840004
1.34484e-08
0.0840003
3.47054e-08
0.0840005
8.41872e-08
0.0840002
2.07546e-07
0.0840013
5.08221e-07
0.084
1.22211e-06
0.0840058
3.04496e-06
0.0839997
7.17243e-06
0.084028
1.81829e-05
0.0840076
4.24775e-05
0.0841277
0.000108783
0.0841385
0.00025867
0.0846264
0.000673275
0.0854582
0.0017774
0.0891325
0.00538057
0.100902
0.0186894
0.126797
0.0615335
0.129845
0.0953672
0.131616
0.0981761
0.12891
0.0983016
0.0918
0.125192
0.0840003
5.76571e-11
0.0840003
3.55335e-10
0.0840003
1.25871e-09
0.0840003
3.4735e-09
0.0840003
9.25081e-09
0.0840004
2.28778e-08
0.0840003
5.67224e-08
0.0840005
1.3961e-07
0.0840006
3.348e-07
0.0840007
8.33626e-07
0.084003
1.96629e-06
0.0840008
4.95861e-06
0.0840199
1.15586e-05
0.0840001
2.93838e-05
0.0841204
6.87024e-05
0.0840365
0.000175459
0.0845675
0.000423894
0.0848638
0.00111686
0.0874964
0.00310173
0.0959504
0.00999243
0.124125
0.0334012
0.132858
0.0866338
0.133622
0.0974122
0.13222
0.0997049
0.0955972
0.12842
0.0840003
3.63745e-11
0.0840003
2.50073e-10
0.0840003
8.06631e-10
0.0840003
2.42785e-09
0.0840003
5.96379e-09
0.0840003
1.57159e-08
0.0840004
3.72586e-08
0.0840003
9.38712e-08
0.0840008
2.24337e-07
0.0840002
5.50735e-07
0.0840028
1.33859e-06
0.0840003
3.21966e-06
0.0840138
7.96426e-06
0.0840032
1.88928e-05
0.0840663
4.73821e-05
0.0840519
0.00011226
0.0843186
0.00028514
0.0845416
0.000703959
0.0859584
0.00190852
0.0900911
0.00566977
0.104227
0.019358
0.130077
0.0607446
0.133333
0.0941563
0.135667
0.0973747
0.0976559
0.13361
0.0840003
2.54399e-11
0.0840003
1.54564e-10
0.0840003
5.49588e-10
0.0840003
1.51192e-09
0.0840003
4.03408e-09
0.0840003
9.90061e-09
0.0840003
2.48016e-08
0.0840004
5.97374e-08
0.0840004
1.46593e-07
0.0840007
3.54811e-07
0.0840011
8.57839e-07
0.0840018
2.09577e-06
0.0840071
5.01732e-06
0.0840039
1.23694e-05
0.0840486
2.94317e-05
0.0840221
7.30759e-05
0.0842704
0.000175594
0.084293
0.000442579
0.0853943
0.00112549
0.087583
0.00315058
0.0971519
0.0100072
0.12552
0.0322911
0.135944
0.0837258
0.136614
0.0967078
0.0978325
0.136441
0.0840003
1.57392e-11
0.0840003
1.02351e-10
0.0840003
3.50497e-10
0.0840003
9.96217e-10
0.0840003
2.5782e-09
0.0840003
6.52917e-09
0.0840003
1.57581e-08
0.0840004
3.95424e-08
0.0840004
9.26205e-08
0.0840004
2.34772e-07
0.0840012
5.42682e-07
0.0840005
1.38279e-06
0.0840063
3.19142e-06
0.0840002
8.09626e-06
0.0840372
1.8881e-05
0.084003
4.75204e-05
0.0841977
0.000112724
0.0841128
0.000283654
0.084902
0.000702334
0.0857299
0.00187916
0.0906032
0.00553918
0.104108
0.01853
0.131955
0.0559257
0.136943
0.0917202
0.0961257
0.138651
0.0840003
1.0457e-11
0.0840003
6.36324e-11
0.0840003
2.23808e-10
0.0840003
6.20708e-10
0.0840003
1.63871e-09
0.0840003
4.02677e-09
0.0840003
1.00917e-08
0.0840003
2.39745e-08
0.0840004
5.99368e-08
0.0840005
1.39849e-07
0.0840007
3.51694e-07
0.0840014
8.14478e-07
0.0840016
2.05001e-06
0.084008
4.75755e-06
0.0840053
1.18957e-05
0.0840502
2.78789e-05
0.0840337
6.91753e-05
0.0842791
0.000165266
0.084348
0.000412118
0.0854876
0.00103898
0.0878615
0.00285494
0.0977575
0.00883406
0.126076
0.0275468
0.139093
0.0786916
0.0956296
0.139589
0.0840003
6.08333e-12
0.0840003
4.126e-11
0.0840003
1.35395e-10
0.0840003
4.00907e-10
0.0840003
9.9539e-10
0.0840003
2.59144e-09
0.0840003
6.12791e-09
0.0840003
1.54479e-08
0.0840004
3.6313e-08
0.0840003
9.00502e-08
0.0840007
2.13909e-07
0.0840004
5.21459e-07
0.0840029
1.25719e-06
0.0840007
3.01851e-06
0.0840144
7.38477e-06
0.0840052
1.75164e-05
0.0840735
4.33694e-05
0.0840511
0.000102793
0.0843533
0.000257782
0.0845393
0.00063043
0.0859944
0.00166891
0.0897846
0.004802
0.101643
0.0158261
0.132343
0.047924
0.0878525
0.140112
0.0840003
3.86092e-12
0.0840003
2.46321e-11
0.0840003
8.50507e-11
0.0840003
2.40165e-10
0.0840003
6.23547e-10
0.0840003
1.56591e-09
0.0840003
3.79769e-09
0.0840003
9.38413e-09
0.0840003
2.225e-08
0.0840004
5.50982e-08
0.0840005
1.29133e-07
0.0840006
3.21174e-07
0.0840014
7.5029e-07
0.0840013
1.86428e-06
0.084008
4.37069e-06
0.0840043
1.07701e-05
0.0840494
2.5612e-05
0.0840254
6.23621e-05
0.0842738
0.000151211
0.0842753
0.000370302
0.0853792
0.000935377
0.0872727
0.00251073
0.0957841
0.00758229
0.119757
0.0238554
0.0679683
0.139639
0.0840003
2.5032e-12
0.0840003
1.46086e-11
0.0840003
5.35845e-11
0.0840003
1.42323e-10
0.0840003
3.91681e-10
0.0840003
9.25323e-10
0.0840003
2.39304e-09
0.0840003
5.53529e-09
0.0840003
1.39834e-08
0.0840004
3.2573e-08
0.0840003
8.07934e-08
0.0840007
1.91093e-07
0.0840005
4.64415e-07
0.0840023
1.12096e-06
0.0840021
2.66768e-06
0.0840087
6.57844e-06
0.0840169
1.53271e-05
0.0840357
3.85924e-05
0.0841166
8.91255e-05
0.0842068
0.000227326
0.084694
0.000541813
0.0856534
0.00142766
0.0894146
0.00396077
0.100477
0.0126874
0.0379334
0.130503
0.0840003
1.36715e-12
0.0840003
9.36742e-12
0.0840003
3.05252e-11
0.0840003
9.10811e-11
0.0840003
2.24328e-10
0.0840003
5.88128e-10
0.0840003
1.3714e-09
0.0840003
3.49301e-09
0.0840003
8.0822e-09
0.0840003
2.02898e-08
0.0840004
4.72923e-08
0.0840004
1.16962e-07
0.0840009
2.7667e-07
0.0840007
6.72806e-07
0.084003
1.61817e-06
0.0840034
3.86568e-06
0.0840125
9.47271e-06
0.0840247
2.22763e-05
0.0840585
5.54788e-05
0.0841587
0.000130108
0.0843641
0.000328582
0.0849891
0.000801209
0.0868211
0.00214181
0.093253
0.00625455
0.0197011
0.111448
0.0840003
8.86401e-13
0.0840003
5.28142e-12
0.0840003
1.90874e-11
0.0840003
5.14564e-11
0.0840003
1.39062e-10
0.0840003
3.33333e-10
0.0840003
8.46136e-10
0.0840003
1.98049e-09
0.0840003
4.93153e-09
0.0840003
1.15538e-08
0.0840003
2.8375e-08
0.0840005
6.72307e-08
0.0840004
1.62576e-07
0.0840011
3.89995e-07
0.0840008
9.30708e-07
0.0840048
2.25871e-06
0.084004
5.33291e-06
0.0840229
1.30297e-05
0.08403
3.06523e-05
0.0841125
7.53662e-05
0.084216
0.000178197
0.0846473
0.000443895
0.0855674
0.00110343
0.0889389
0.00300978
0.00911741
0.0994252
0.0840003
4.92184e-13
0.0840003
3.23376e-12
0.0840003
1.07671e-11
0.0840003
3.1435e-11
0.0840003
7.88587e-11
0.0840003
2.01509e-10
0.0840003
4.84207e-10
0.0840003
1.18266e-09
0.0840003
2.85747e-09
0.0840003
6.78503e-09
0.0840004
1.66558e-08
0.0840004
3.88103e-08
0.0840004
9.65433e-08
0.0840007
2.22264e-07
0.0840007
5.56296e-07
0.0840027
1.28029e-06
0.084002
3.18614e-06
0.0840153
7.40482e-06
0.0840082
1.82046e-05
0.0840893
4.30081e-05
0.0840561
0.000104616
0.0844639
0.000253043
0.0845788
0.00062372
0.0864721
0.0016037
0.00452964
0.0905627
0.0840003
2.94547e-13
0.0840003
1.81542e-12
0.0840003
6.43144e-12
0.0840003
1.77049e-11
0.0840003
4.68214e-11
0.0840003
1.14825e-10
0.0840003
2.82435e-10
0.0840003
6.84416e-10
0.0840003
1.63131e-09
0.0840003
4e-09
0.0840003
9.32598e-09
0.0840003
2.31591e-08
0.0840004
5.34041e-08
0.0840004
1.33331e-07
0.084001
3.06712e-07
0.0840007
7.63758e-07
0.0840042
1.76918e-06
0.0840025
4.36417e-06
0.0840217
1.02348e-05
0.0840157
2.49328e-05
0.084114
5.94419e-05
0.0841162
0.000143736
0.0845782
0.000351024
0.0850294
0.000869734
0.00229066
0.0875768
0.0840003
1.60814e-13
0.0840003
1.07133e-12
0.0840003
3.55699e-12
0.0840003
1.04157e-11
0.0840003
2.59967e-11
0.0840003
6.67815e-11
0.0840003
1.58365e-10
0.0840003
3.91449e-10
0.0840003
9.25247e-10
0.0840003
2.24387e-09
0.0840003
5.35594e-09
0.0840003
1.27581e-08
0.0840004
3.09012e-08
0.0840004
7.24903e-08
0.0840005
1.77641e-07
0.0840011
4.12272e-07
0.084001
1.01799e-06
0.0840053
2.34874e-06
0.0840038
5.81147e-06
0.0840305
1.34165e-05
0.0840222
3.31493e-05
0.0841688
7.71376e-05
0.0841676
0.000190238
0.0848674
0.000455051
0.00115481
0.0855868
0.0840003
9.77927e-14
0.0840003
5.84725e-13
0.0840003
2.11276e-12
0.0840003
5.68536e-12
0.0840003
1.53444e-11
0.0840003
3.65865e-11
0.0840003
9.29995e-11
0.0840003
2.15359e-10
0.0840003
5.37933e-10
0.0840003
1.24367e-09
0.0840003
3.06732e-09
0.0840003
7.16389e-09
0.0840003
1.74001e-08
0.0840004
4.1228e-08
0.0840004
9.85197e-08
0.0840007
2.37145e-07
0.0840009
5.56443e-07
0.0840022
1.36385e-06
0.0840049
3.14941e-06
0.0840085
7.80238e-06
0.0840316
1.79033e-05
0.0840383
4.46154e-05
0.0841908
0.000102743
0.08425
0.000257158
0.000612752
0.0850277
0.0840003
5.08898e-14
0.0840003
3.43394e-13
0.0840003
1.12166e-12
0.0840003
3.32635e-12
0.0840003
8.1913e-12
0.0840003
2.12504e-11
0.0840003
4.963e-11
0.0840003
1.24426e-10
0.0840003
2.88673e-10
0.0840003
7.10199e-10
0.0840003
1.6629e-09
0.0840003
4.02849e-09
0.0840003
9.55864e-09
0.0840003
2.27677e-08
0.0840004
5.48941e-08
0.0840005
1.28635e-07
0.0840008
3.14911e-07
0.0840014
7.27442e-07
0.0840024
1.79869e-06
0.0840075
4.13552e-06
0.0840095
1.0246e-05
0.0840462
2.36078e-05
0.0840506
5.84496e-05
0.0842627
0.000136329
0.000338107
0.0843594
0.0840003
2.91189e-14
0.0840003
1.77561e-13
0.0840003
6.33459e-13
0.0840003
1.74225e-12
0.0840003
4.58905e-12
0.0840003
1.12223e-11
0.0840003
2.75578e-11
0.0840003
6.59335e-11
0.0840003
1.5832e-10
0.0840003
3.78884e-10
0.0840003
8.98024e-10
0.0840003
2.15868e-09
0.0840003
5.08428e-09
0.0840003
1.22627e-08
0.0840004
2.87215e-08
0.0840004
6.95563e-08
0.0840006
1.62508e-07
0.0840007
3.93229e-07
0.0840023
9.21205e-07
0.0840022
2.21584e-06
0.0840127
5.22941e-06
0.0840103
1.24845e-05
0.0840719
2.96371e-05
0.0840664
7.07175e-05
0.000169525
0.0843837
0.0840003
1.51368e-14
0.0840003
9.36033e-14
0.0840003
3.37542e-13
0.0840003
9.04328e-13
0.0840003
2.44499e-12
0.0840003
5.79378e-12
0.0840003
1.46752e-11
0.0840003
3.36919e-11
0.0840003
8.38939e-11
0.0840003
1.92065e-10
0.0840003
4.71053e-10
0.0840003
1.09024e-09
0.0840003
2.62737e-09
0.0840003
6.18782e-09
0.0840003
1.4567e-08
0.0840004
3.50336e-08
0.0840004
8.0667e-08
0.0840007
1.97502e-07
0.0840012
4.46385e-07
0.0840018
1.10475e-06
0.0840062
2.48009e-06
0.0840073
6.12667e-06
0.0840375
1.38177e-05
0.0840373
3.38048e-05
7.73443e-05
0.0842192
0.0840003
7.67745e-15
0.0840003
4.96022e-14
0.0840003
1.5763e-13
0.0840003
4.84804e-13
0.0840003
1.16014e-12
0.0840003
3.05532e-12
0.0840003
6.95838e-12
0.0840003
1.75024e-11
0.0840003
3.97149e-11
0.0840003
9.72581e-11
0.0840003
2.23826e-10
0.0840003
5.32698e-10
0.0840003
1.25496e-09
0.0840003
2.89823e-09
0.0840003
7.01027e-09
0.0840004
1.5651e-08
0.0840004
3.88541e-08
0.0840005
8.44982e-08
0.0840006
2.12576e-07
0.0840018
4.56622e-07
0.0840014
1.14561e-06
0.0840096
2.46745e-06
0.0840059
6.10419e-06
0.0840538
1.32552e-05
3.22126e-05
0.0840376
0.0840003
3.42261e-15
0.0840003
2.21422e-14
0.0840003
8.14223e-14
0.0840003
2.22124e-13
0.0840003
5.97512e-13
0.0840003
1.3886e-12
0.0840003
3.49052e-12
0.0840003
7.9953e-12
0.0840003
1.91826e-11
0.0840003
4.49657e-11
0.0840003
1.03145e-10
0.0840003
2.49996e-10
0.0840003
5.49578e-10
0.0840003
1.37362e-09
0.0840003
2.90589e-09
0.0840003
7.46396e-09
0.0840004
1.53309e-08
0.0840004
3.97898e-08
0.0840007
8.08606e-08
0.0840004
2.0756e-07
0.0840025
4.26836e-07
0.084
1.05678e-06
0.0840138
2.23597e-06
0.083998
5.26547e-06
1.15844e-05
0.0840727
0.0840003
2.26403e-15
0.0840003
1.1396e-14
0.0840003
4.21716e-14
0.0840003
1.01144e-13
0.0840003
2.76884e-13
0.0840003
6.32359e-13
0.0840003
1.61182e-12
0.0840003
3.50565e-12
0.0840003
8.92166e-12
0.0840003
1.88842e-11
0.0840003
4.80439e-11
0.0840003
1.00852e-10
0.0840003
2.53539e-10
0.0840003
5.4151e-10
0.0840003
1.30283e-09
0.0840003
2.9122e-09
0.0840003
6.58836e-09
0.0840004
1.54387e-08
0.0840002
3.28489e-08
0.084001
8.13364e-08
0.0839999
1.59842e-07
0.0840035
4.19182e-07
0.0839983
7.62752e-07
0.0840134
2.1254e-06
3.4876e-06
0.0839961
0.0840003
5.98263e-16
0.0840003
4.77461e-15
0.0840003
1.44381e-14
0.0840003
4.6655e-14
0.0840003
1.10575e-13
0.0840003
2.87878e-13
0.0840003
6.27613e-13
0.0840003
1.62202e-12
0.0840003
3.39119e-12
0.0840003
8.59779e-12
0.0840003
1.77986e-11
0.0840003
4.53487e-11
0.0840003
9.16788e-11
0.0840003
2.31694e-10
0.0840003
4.81268e-10
0.0840003
1.15728e-09
0.0840003
2.47448e-09
0.0840004
5.73188e-09
0.0840002
1.26174e-08
0.0840007
2.73192e-08
0.0839995
6.30627e-08
0.0840034
1.31029e-07
0.0839943
2.98339e-07
0.0840186
6.01528e-07
1.39377e-06
0.0839674
0.0840003
2.27249e-16
0.0840003
1.29237e-15
0.0840003
6.74504e-15
0.0840003
1.28079e-14
0.0840003
4.90469e-14
0.0840003
8.91221e-14
0.0840003
2.80353e-13
0.0840003
4.73588e-13
0.0840003
1.58271e-12
0.0840003
2.29374e-12
0.0840003
8.82106e-12
0.0840003
1.03774e-11
0.0840003
4.74389e-11
0.0840003
4.8237e-11
0.0840003
2.44563e-10
0.0840003
2.51718e-10
0.0840003
1.15683e-09
0.0840004
1.49679e-09
0.0840002
5.01416e-09
0.0840007
9.56894e-09
0.0839993
2.01712e-08
0.0840031
5.7485e-08
0.0839938
6.85276e-08
0.0840164
3.36151e-07
2.09249e-07
0.0839659
0.0840003
0.0840003
0.0840003
0.0840003
0.0840003
0.0840003
0.0840003
0.0840003
0.0840003
0.0840003
0.0840003
0.0840003
0.0840003
0.0840003
0.0840003
0.0840003
0.0840003
0.0840003
0.0840003
0.0840004
0.0839998
0.0840017
0.0839954
0.0840112
0.0839705
0.0483763
0.0405753
0.0321639
0.0162111
0.0252208
0.00694167
0.022445
0.0027735
0.0222684
0.000168745
0.0241639
-0.00189946
0.0263575
-0.0021971
0.027554
-0.00120539
0.027889
-0.000351394
0.027646
0.00022316
0.0272352
0.000382956
0.0268366
0.000351561
0.02642
0.000323745
0.0257903
0.000431976
0.0243644
0.00102107
0.0205185
0.00279621
0.0116913
0.00724757
0.00359194
0.00764881
-0.00306261
0.00657787
-0.00906122
0.00610484
-0.0140826
0.00516974
-0.0181853
0.00417431
-0.0213552
0.00317868
-0.023457
0.00214959
-0.0248039
0.00139602
-0.0258158
0.00105541
-0.0265682
0.00083706
-0.0273258
0.000801048
-0.0279768
0.000687402
-0.0284063
0.000464386
-0.0285294
0.000141916
-0.0283684
-0.000165862
-0.0277663
-0.000637801
-0.0264166
-0.00140878
-0.0243879
-0.00209493
-0.0218927
-0.00256687
-0.0190238
-0.00293215
-0.0159785
-0.00310463
-0.0127592
-0.00327303
-0.00951128
-0.00329328
-0.00630871
-0.00324195
-0.00312107
-0.00322068
0.000211343
-0.00336243
0.00328894
-0.00310019
0.00611279
-0.00284092
0.00880334
-0.00270152
0.0113602
-0.00256184
0.0137768
-0.00241673
0.0160397
-0.00226192
0.0181832
-0.00213998
0.0202726
-0.00208397
0.0222727
-0.00199581
0.0241679
-0.00189335
0.0259442
-0.00177782
0.0276215
-0.00167767
0.0291971
-0.00157925
0.0306857
-0.00149216
0.0320835
-0.00140373
0.0334008
-0.00132265
0.0346361
-0.00124151
0.0357987
-0.00116683
0.0368891
-0.00109327
0.037913
-0.00102561
0.0388707
-0.000959626
0.0397674
-0.000899095
0.0406045
-0.000840493
0.0413851
-0.00078676
0.0421095
-0.000734801
0.0427819
-0.000687032
0.0434019
-0.000640788
0.0439749
-0.000597976
0.0444998
-0.000556399
0.0449809
-0.000517528
0.04542
-0.000479577
0.0458183
-0.000443804
0.0461804
-0.000408636
0.0465052
-0.000375389
0.0467981
-0.000342596
0.0470579
-0.000311685
0.0472889
-0.000281322
0.0474914
-0.000252882
0.0476684
-0.000225148
0.0478196
-0.000199309
0.0479495
-0.000174189
0.0480557
-0.000150873
0.0481428
-0.000128403
0.0482102
-0.000107515
0.0482589
-8.74685e-05
0.0482912
-6.86761e-05
0.0483057
-5.03674e-05
0.0483053
-3.35914e-05
0.0482892
-1.72579e-05
0.0482573
-5.4378e-07
0.0482139
1.19841e-05
0.0481566
2.60862e-05
0.0480848
4.14617e-05
0.0479947
5.91166e-05
0.0478845
8.04271e-05
0.0477442
0.000109054
0.0001451
0.0636461
0.0602021
0.0491982
0.0306583
0.0419734
0.0141651
0.0391103
0.00563463
0.0379696
0.00131315
0.0369881
-0.000919653
0.0362777
-0.00149283
0.0366121
-0.00154677
0.0373975
-0.00114694
0.0381819
-0.000578019
0.0386921
-0.000151947
0.0387852
0.000228394
0.0385268
0.000504141
0.0378543
0.00092996
0.0368289
0.00168562
0.0349864
0.00371967
0.0312838
0.00926474
0.0248977
0.0137366
0.0189345
0.0125993
0.0140386
0.0112162
0.00948041
0.0100089
0.00524452
0.00858526
0.00116753
0.00737121
-0.00298994
0.00638934
-0.00693782
0.00542855
-0.0103087
0.00452067
-0.0129713
0.00361332
-0.0147477
0.002624
-0.0158306
0.00180428
-0.0163305
0.000996961
-0.0161465
-2.15758e-05
-0.0155642
-0.000751465
-0.0145081
-0.00171926
-0.0125571
-0.00342014
-0.0100354
-0.00469451
-0.00715883
-0.00552499
-0.00402975
-0.00613595
-0.000666854
-0.00653011
0.00256619
-0.00655874
0.00564254
-0.00640997
0.00867332
-0.00629633
0.011559
-0.00612116
0.014215
-0.0060234
0.0168698
-0.00575232
0.0195066
-0.00546884
0.0220049
-0.00518815