/*--------------------------------*- C++ -*----------------------------------*\
  =========                 |
  \\      /  F ield         | OpenFOAM: The Open Source CFD Toolbox
   \\    /   O peration     | Website:  https://openfoam.org
    \\  /    A nd           | Version:  13
     \\/     M anipulation  |
\*---------------------------------------------------------------------------*/
FoamFile
{
    format      ascii;
    class       volScalarField;
    location    "4";
    object      T;
}
// * * * * * * * * * * * * * * * * * * * * * * * * * * * * * * * * * * * * * //

dimensions      [0 0 0 1 0 0 0];

internalField   nonuniform List<scalar> 
5250
(
1
1.00002
1.00004
1.00011
1.00025
1.00069
1.00148
1.00423
1.00922
1.02526
1.06074
1.16372
1.43677
2.09826
2.64843
2.76085
2.74279
2.73755
2.74894
2.76664
2.77834
2.78755
2.79287
2.79471
2.80006
1
1.00002
1.00004
1.00011
1.00024
1.00067
1.00151
1.00398
1.00948
1.02417
1.06058
1.16005
1.43007
2.08381
2.64357
2.76058
2.742
2.73642
2.74782
2.76548
2.77713
2.78634
2.79166
2.79348
2.79878
1
1.00001
1.00004
1.0001
1.00025
1.00063
1.00148
1.00388
1.00898
1.02373
1.05786
1.15478
1.41355
2.05194
2.63187
2.75915
2.7395
2.73309
2.74462
2.76193
2.77386
2.7827
2.78818
2.78996
2.79544
1
1.00002
1.00003
1.0001
1.00022
1.00062
1.00137
1.00367
1.0086
1.0222
1.05507
1.14549
1.3901
2.00113
2.61306
2.7563
2.73507
2.72736
2.73846
2.75659
2.76785
2.77767
2.78285
2.78451
2.78925
1
1.00001
1.00003
1.0001
1.0002
1.00058
1.00127
1.00342
1.008
1.0206
1.05102
1.13421
1.35929
1.9325
2.58639
2.75079
2.72804
2.71871
2.73023
2.74758
2.75984
2.76887
2.77458
2.77686
2.78235
1
1.00001
1.00003
1.00009
1.00019
1.00051
1.00121
1.00304
1.00749
1.01848
1.04674
1.12093
1.32383
1.84713
2.54995
2.74031
2.7168
2.70635
2.7178
2.73618
2.7482
2.75818
2.76325
2.76492
2.77018
1
1.00001
1.00003
1.00008
1.00017
1.00048
1.00104
1.00292
1.00637
1.0175
1.04103
1.10965
1.28827
1.76176
2.50719
2.7267
2.70293
2.69185
2.70296
2.7208
2.73352
2.74226
2.74844
2.74921
2.75279
1
1.00001
1.00003
1.00006
1.00018
1.00038
1.0011
1.00229
1.00658
1.0145
1.03924
1.09713
1.26233
1.69425
2.45905
2.7113
2.69089
2.68087
2.68888
2.70338
2.71577
2.72295
2.72686
2.72568
2.72539
1
1.00001
1.00002
1.00006
1.00015
1.00038
1.00088
1.00237
1.00531
1.01434
1.03374
1.08948
1.23466
1.62841
2.38904
2.68433
2.68126
2.67401
2.67568
2.68576
2.69367
2.69946
2.69953
2.69295
2.67963
1
1.00001
1.00002
1.00005
1.00014
1.00033
1.00085
1.00193
1.00524
1.01185
1.03169
1.07787
1.20988
1.55862
2.29713
2.64784
2.67376
2.66589
2.66224
2.66759
2.67058
2.67025
2.66285
2.64078
2.57966
1
1.00001
1.00002
1.00005
1.00013
1.00027
1.00078
1.00164
1.00471
1.01027
1.02795
1.06789
1.18265
1.48689
2.1807
2.59991
2.66487
2.65587
2.648
2.64779
2.64629
2.63832
2.61689
2.56605
2.45173
1
1.00001
1.00001
1.00005
1.00009
1.00028
1.00056
1.00164
1.00354
1.00968
1.02253
1.05935
1.15268
1.41182
2.03516
2.53752
2.65167
2.64253
2.63158
2.62715
2.62043
2.60401
2.56892
2.49806
2.36419
1
1.00001
1.00001
1.00004
1.00008
1.00022
1.00049
1.00132
1.00304
1.00782
1.01893
1.04832
1.12443
1.33277
1.86169
2.45699
2.62789
2.62111
2.61122
2.60293
2.59238
2.57018
2.52708
2.45142
2.33049
1
1
1.00001
1.00003
1.00006
1.00018
1.00038
1.00112
1.00231
1.0066
1.01458
1.03915
1.09654
1.25819
1.67388
2.35833
2.59042
2.592
2.58448
2.5753
2.56165
2.53723
2.49296
2.42262
2.31747
1
1
1.00001
1.00002
1.00005
1.00015
1.00032
1.00089
1.0019
1.0054
1.01179
1.032
1.07777
1.20879
1.54998
2.24683
2.5472
2.56767
2.55877
2.54719
2.53313
2.50657
2.46424
2.40148
2.31125
1
1
1.00001
1.00002
1.00005
1.00011
1.00028
1.00065
1.00172
1.00388
1.01047
1.02422
1.06403
1.16433
1.44098
2.07462
2.47583
2.54744
2.53947
2.52537
2.50649
2.48063
2.43905
2.38333
2.30621
1
1
1.00001
1.00001
1.00004
1.00009
1.00021
1.00055
1.00123
1.00338
1.00744
1.02023
1.04783
1.12776
1.33591
1.8648
2.3793
2.51984
2.51847
2.50506
2.4831
2.45708
2.418
2.36668
2.30044
1
1
1
1.00001
1.00003
1.00007
1.00016
1.00041
1.00096
1.00241
1.00588
1.01443
1.03605
1.09141
1.23926
1.6245
2.25245
2.47365
2.48851
2.47863
2.45778
2.43275
2.39818
2.35121
2.29326
1
1
1
1.00001
1.00002
1.00006
1.00011
1.00033
1.0007
1.0019
1.00435
1.01121
1.02702
1.06934
1.1796
1.47468
2.10382
2.41858
2.46226
2.45364
2.43512
2.40832
2.37797
2.33714
2.28521
1
1
1
1.00001
1.00001
1.00004
1.00009
1.00025
1.00051
1.00149
1.0031
1.00871
1.01966
1.0522
1.13141
1.35111
1.88474
2.32137
2.43087
2.42973
2.41451
2.38888
2.35769
2.32228
2.27711
1
1
1
1
1.00001
1.00003
1.00007
1.00017
1.00039
1.00103
1.00228
1.00619
1.01384
1.03684
1.08971
1.23747
1.61517
2.18549
2.38221
2.39995
2.39003
2.36789
2.33862
2.30523
2.26701
1
1
1
1
1.00001
1.00002
1.00005
1.00012
1.00029
1.00071
1.0017
1.00434
1.01014
1.0262
1.06385
1.16778
1.43771
2.01792
2.32012
2.37155
2.36485
2.34645
2.31971
2.28956
2.25431
1
1
1
1
1.00001
1.00001
1.00004
1.00008
1.00022
1.00046
1.00134
1.00277
1.00783
1.01744
1.04637
1.11508
1.30548
1.77535
2.21215
2.33302
2.33833
2.32667
2.30308
2.27421
2.24172
1
1
1
1
1
1.00001
1.00003
1.00005
1.00016
1.00032
1.0009
1.00194
1.0052
1.01191
1.03071
1.07525
1.19594
1.50948
2.05384
2.27324
2.3075
2.30215
2.28451
2.2578
2.22885
1
1
1
1
1
1.00001
1.00002
1.00004
1.0001
1.00022
1.00063
1.00128
1.0037
1.00787
1.02139
1.05031
1.13241
1.34234
1.83861
2.18447
2.27274
2.27696
2.26625
2.2435
2.21482
1
1
1
1
1
1
1.00001
1.00003
1.00006
1.00016
1.00038
1.00092
1.00229
1.00536
1.01374
1.03242
1.08355
1.21189
1.55048
2.04182
2.22247
2.24843
2.24372
2.22618
2.20155
1
1
1
1
1
1
1.00001
1.00002
1.00004
1.00011
1.00023
1.00067
1.00137
1.00391
1.0084
1.02256
1.05328
1.13926
1.35925
1.84893
2.14793
2.21699
2.22029
2.2097
2.18849
1
1
1
1
1
1
1.00001
1.00001
1.00003
1.00006
1.00017
1.0004
1.00097
1.00238
1.00559
1.01432
1.03371
1.08697
1.22035
1.56861
2.01388
2.1711
2.19384
2.18917
2.17234
1
1
1
1
1
1
1
1.00001
1.00002
1.00005
1.0001
1.00028
1.00057
1.00164
1.00341
1.00939
1.02107
1.05514
1.1363
1.35709
1.82008
2.09513
2.16069
2.1658
2.15701
1
1
1
1
1
1
1
1
1.00001
1.00003
1.00007
1.00015
1.0004
1.00094
1.00228
1.00561
1.0133
1.03348
1.08204
1.21116
1.53855
1.95979
2.11415
2.13953
2.13733
1
1
1
1
1
1
1
1
1.00001
1.00002
1.00004
1.0001
1.00024
1.00061
1.00136
1.00363
1.00797
1.02124
1.04927
1.1287
1.32781
1.76141
2.03348
2.10605
2.11459
1
1
1
1
1
1
1
1
1
1.00001
1.00002
1.00006
1.00014
1.00036
1.00086
1.00205
1.00508
1.01188
1.0299
1.07234
1.1846
1.46971
1.88791
2.0567
2.08718
1
1
1
1
1
1
1
1
1
1.00001
1.00002
1.00004
1.00009
1.00023
1.00049
1.00137
1.00282
1.0079
1.01717
1.04544
1.10964
1.28575
1.67845
1.97435
2.05664
1
1
1
1
1
1
1
1
1
1
1.00001
1.00002
1.00006
1.00013
1.00031
1.00076
1.00177
1.00448
1.01019
1.02625
1.06205
1.15919
1.40545
1.81316
1.99883
1
1
1
1
1
1
1
1
1
1
1.00001
1.00001
1.00003
1.00007
1.0002
1.00041
1.00114
1.00247
1.00641
1.01486
1.03717
1.09132
1.23325
1.57087
1.89466
1
1
1
1
1
1
1
1
1
1
1
1.00001
1.00002
1.00005
1.0001
1.00028
1.00058
1.00158
1.00344
1.00896
1.02061
1.05217
1.12801
1.33001
1.71093
1
1
1
1
1
1
1
1
1
1
1
1
1.00001
1.00002
1.00007
1.00014
1.00038
1.00078
1.00217
1.0046
1.01214
1.02757
1.07016
1.17225
1.43373
1
1
1
1
1
1
1
1
1
1
1
1
1.00001
1.00002
1.00003
1.00009
1.00021
1.00047
1.00121
1.00265
1.00705
1.01542
1.04053
1.09552
1.24774
1
1
1
1
1
1
1
1
1
1
1
1
1
1.00001
1.00002
1.00005
1.00011
1.00029
1.00061
1.00167
1.00344
1.0095
1.02053
1.05383
1.12883
1
1
1
1
1
1
1
1
1
1
1
1
1
1
1.00001
1.00003
1.00006
1.00015
1.00037
1.00082
1.00213
1.00458
1.01218
1.02688
1.06941
1
1
1
1
1
1
1
1
1
1
1
1
1
1
1.00001
1.00001
1.00004
1.00008
1.00021
1.00046
1.00114
1.00268
1.00637
1.01559
1.03694
1
1
1
1
1
1
1
1
1
1
1
1
1
1
1
1.00001
1.00002
1.00005
1.0001
1.00026
1.0006
1.00145
1.0035
1.00816
1.02022
1
1
1
1
1
1
1
1
1
1
1
1
1
1
1
1
1.00001
1.00002
1.00006
1.00014
1.00032
1.00081
1.00176
1.00464
1.00998
1
1
1
1
1
1
1
1
1
1
1
1
1
1
1
1
1.00001
1.00001
1.00003
1.00008
1.00019
1.00044
1.00102
1.00254
1.00566
1
1
1
1
1
1
1
1
1
1
1
1
1
1
1
1
1
1.00001
1.00002
1.00005
1.00012
1.00027
1.00069
1.00151
1.00401
1
1
1
1
1
1
1
1
1
1
1
1
1
1
1
1
1
1.00001
1.00002
1.00004
1.00009
1.00022
1.0005
1.00133
1.00288
1
1
1
1
1
1
1
1
1
1
1
1
1
1
1
1
1
1.00001
1.00001
1.00003
1.00008
1.00017
1.00051
1.00105
1.00301
1
1
1
1
1
1
1
1
1
1
1
1
1
1
1
1
1
1.00001
1.00001
1.00003
1.00008
1.00018
1.00047
1.00104
1.00289
1
1
1
1
1
1
1
1
1
1
1
1
1
1
1
1
1
1
1.00001
1.00003
1.00008
1.00017
1.00047
1.00102
1.00289
1
1
1
1
1
1
1
1
1
1
1
1
1
1
1
1
1
1.00001
1.00001
1.00003
1.00007
1.00018
1.00044
1.00108
1.00274
2.23494
2.0693
2.01751
2.0472
2.10637
2.17753
2.24465
2.27856
2.28705
2.28711
2.28922
2.29774
2.32009
2.37018
2.47285
2.64664
2.85289
2.94515
2.95934
2.96517
2.96888
2.96528
2.93796
2.91241
2.90046
2.88441
2.87235
2.86362
2.85301
2.84847
2.84682
2.84926
2.8594
2.87523
2.89501
2.91333
2.93026
2.94487
2.95334
2.96081
2.96373
2.96481
2.96204
2.96128
2.9558
2.95212
2.94363
2.93899
2.92952
2.92426
2.91306
2.90697
2.89453
2.88815
2.87514
2.86762
2.8542
2.8458
2.83275
2.8241
2.81159
2.80284
2.79061
2.78191
2.77
2.76133
2.74952
2.74087
2.72926
2.72057
2.70919
2.70035
2.68924
2.6804
2.66935
2.66072
2.64961
2.64131
2.63015
2.6222
2.61113
2.60345
2.59252
2.58519
2.57428
2.56737
2.55652
2.54988
2.53925
2.53272
2.52239
2.51599
2.50596
2.49986
2.49013
2.48455
2.4756
2.47157
2.46518
2.46502
2.22904
2.13091
2.0768
2.03992
2.00332
1.97511
1.96861
1.97305
1.98827
2.01094
2.02974
2.04223
2.06048
2.09841
2.18192
2.35171
2.62497
2.77523
2.8492
2.89759
2.93658
2.96331
2.98033
2.99343
2.99698
2.99821
2.9986
2.99009
2.97306
2.96736
2.96657
2.96664
2.97225
2.97874
2.98195
2.98402
2.97613
2.97253
2.96055
2.95107
2.92743
2.91683
2.89498
2.88383
2.86442
2.85302
2.83525
2.82313
2.80692
2.79536
2.77915
2.76654
2.75073
2.73823
2.72313
2.7113
2.69704
2.68583
2.67212
2.6613
2.64803
2.63747
2.62456
2.61426
2.60164
2.59159
2.57922
2.56933
2.55718
2.54743
2.53542
2.52582
2.51386
2.50449
2.49252
2.48345
2.47149
2.46268
2.45084
2.44221
2.43058
2.42215
2.41068
2.40252
2.3912
2.38328
2.37219
2.36438
2.35361
2.34584
2.33533
2.3276
2.31731
2.30976
2.29985
2.29288
2.28386
2.27837
2.27195
2.27027
2.22838
2.14088
2.06092
1.98561
1.91641
1.8627
1.8375
1.83611
1.84061
1.85329
1.87199
1.8914
1.91067
1.94049
2.00023
2.14327
2.34263
2.54435
2.66182
2.72342
2.76622
2.8036
2.85051
2.89951
2.93775
2.96866
2.99234
3.00284
3.00916
3.01105
3.01342
3.01626
3.01554
3.00539
2.98788
2.96442
2.93514
2.9095
2.88478
2.86384
2.84329
2.82627
2.808
2.79437
2.77837
2.76571
2.75064
2.73842
2.72397
2.7127
2.69914
2.68657
2.67232
2.66039
2.64728
2.63619
2.62332
2.61231
2.59956
2.58853
2.57603
2.56509
2.55283
2.54211
2.53006
2.51958
2.50779
2.49752
2.48602
2.4759
2.46464
2.45465
2.44353
2.43372
2.42266
2.41307
2.40214
2.39272
2.38202
2.37279
2.36233
2.35333
2.34303
2.33426
2.32415
2.31553
2.30565
2.29707
2.28738
2.27884
2.26935
2.26097
2.2517
2.24353
2.23456
2.2268
2.21854
2.21196
2.20595
2.20295
2.22047
2.13379
2.05271
1.97895
1.9138
1.86058
1.81957
1.79054
1.77558
1.7731
1.77545
1.78383
1.79945
1.82461
1.86864
1.96839
2.11671
2.34804
2.50107
2.55446
2.57683
2.62606
2.69074
2.72088
2.75763
2.80806
2.85414
2.89317
2.92727
2.94749
2.96034
2.95762
2.94232
2.91454
2.88029
2.84723
2.81411
2.79048
2.76689
2.75152
2.73422
2.72118
2.70511
2.69293
2.67812
2.66642
2.65236
2.64035
2.62707
2.61635
2.6036
2.59152
2.57759
2.56548
2.55266
2.54113
2.52869
2.51737
2.50525
2.49416
2.48232
2.47138
2.45971
2.44894
2.43747
2.42702
2.41583
2.40572
2.39476
2.38491
2.37406
2.36447
2.35371
2.34444
2.33374
2.32476
2.31413
2.30531
2.29484
2.28617
2.27595
2.26754
2.25762
2.24949
2.23978
2.23174
2.22214
2.21411
2.2047
2.19675
2.18759
2.17981
2.17092
2.16345
2.15485
2.14792
2.13989
2.13418
2.12814
2.12601
2.219
2.13436
2.05633
1.98543
1.92159
1.86483
1.81606
1.77497
1.74426
1.72476
1.71894
1.72013
1.72546
1.73867
1.76757
1.82802
1.95873
2.15235
2.32226
2.39539
2.44964
2.49955
2.52279
2.55038
2.60594
2.64553
2.67794
2.72264
2.7627
2.78938
2.8159
2.81372
2.7976
2.76481
2.73389
2.70297
2.6806
2.66355
2.65173
2.64191
2.63191
2.62213
2.61123
2.60181
2.59099
2.58182
2.57064
2.56096
2.54954
2.54057
2.53022
2.52068
2.5088
2.49837
2.48727
2.47732
2.46658
2.45691
2.44641
2.43699
2.42657
2.41693
2.40635
2.39628
2.38566
2.37555
2.36519
2.35548
2.34535
2.33598
2.32576
2.31638
2.30597
2.29649
2.2862
2.27682
2.26687
2.25771
2.24796
2.23898
2.22917
2.22026
2.21044
2.20163
2.19217
2.18361
2.17472
2.16635
2.15778
2.14947
2.1409
2.13269
2.12411
2.11615
2.10787
2.10038
2.09279
2.08633
2.08058
2.07751
2.22123
2.14101
2.06589
1.99724
1.93523
1.87822
1.82896
1.78478
1.74936
1.71958
1.69873
1.68646
1.68612
1.6901
1.70326
1.73594
1.8167
1.9467
2.17968
2.29949
2.32422
2.36769
2.41445
2.4404
2.46127
2.49797
2.5462
2.58021
2.62044
2.65512
2.68821
2.68753
2.67282
2.64473
2.61462
2.58511
2.56265
2.54781
2.53916
2.53435
2.52877
2.5237
2.51641
2.50994
2.50198
2.49454
2.48514
2.47661
2.46669
2.4586
2.45
2.44228
2.43223
2.42276
2.41263
2.40379
2.39396
2.38493
2.37501
2.36586
2.35617
2.3472
2.33779
2.3289
2.31933
2.31011
2.30026
2.29088
2.28131
2.27239
2.26332
2.25479
2.24564
2.23683
2.22712
2.21788
2.20799
2.19898
2.1896
2.18131
2.1725
2.16458
2.15584
2.14776
2.13868
2.13037
2.12112
2.11307
2.10412
2.09659
2.08814
2.08084
2.07264
2.06526
2.05703
2.04981
2.04176
2.03563
2.02925
2.02675
2.22552
2.14919
2.0797
2.01238
1.95223
1.89648
1.84583
1.80119
1.76072
1.72692
1.69748
1.67649
1.66163
1.65987
1.66408
1.67874
1.71679
1.81617
1.96165
2.16467
2.26205
2.2876
2.3021
2.33375
2.36967
2.39671
2.43033
2.46719
2.51716
2.56124
2.59692
2.59748
2.58143
2.55101
2.51623
2.48226
2.45799
2.43854
2.43079
2.42989
2.4315
2.43139
2.43015
2.4275
2.42348
2.41904
2.41319
2.40797
2.40158
2.39637
2.39036
2.38565
2.37867
2.37148
2.36306
2.35571
2.34736
2.33977
2.33107
2.32345
2.31494
2.30753
2.29923
2.29159
2.28309
2.27494
2.26602
2.25735
2.24817
2.23931
2.23024
2.22158
2.21272
2.20428
2.1954
2.18692
2.1779
2.16922
2.16012
2.15142
2.14246
2.13413
2.12537
2.11742
2.1087
2.10073
2.09195
2.08365
2.07495
2.06649
2.05806
2.04994
2.04185
2.03433
2.02644
2.01936
2.01174
2.00517
1.99898
1.99529
2.22694
2.15876
2.09098
2.02978
1.96934
1.91641
1.86553
1.82024
1.77965
1.7421
1.71141
1.68317
1.66304
1.6474
1.64518
1.64958
1.66552
1.70783
1.81821
1.9806
2.13611
2.21965
2.24628
2.25747
2.27988
2.31796
2.35507
2.38833
2.44353
2.50495
2.5393
2.5379
2.51629
2.4839
2.44178
2.40374
2.3773
2.35979
2.34889
2.3454
2.34987
2.35543
2.35983
2.36203
2.36304
2.36202
2.35979
2.3571
2.35248
2.34852
2.34395
2.34058
2.33553
2.33
2.32229
2.31532
2.30723
2.30011
2.29184
2.28459
2.27634
2.26914
2.26112
2.25361
2.24529
2.23699
2.22799
2.21919
2.20983
2.20117
2.19196
2.18369
2.17489
2.16677
2.1581
2.14979
2.14075
2.13215
2.12271
2.11422
2.10479
2.09662
2.08764
2.07974
2.07129
2.06342
2.05519
2.04722
2.03884
2.0309
2.02228
2.01458
2.00599
1.99867
1.99048
1.98351
1.97599
1.96966
1.96361
1.96033
2.22709
2.16443
2.10329
2.04285
1.988
1.93438
1.88661
1.84074
1.79988
1.76265
1.72785
1.69939
1.6719
1.65242
1.63652
1.63491
1.63967
1.65722
1.70398
1.82307
1.99409
2.11058
2.17832
2.21081
2.22688
2.24736
2.2915
2.34466
2.4159
2.48066
2.50172
2.49603
2.47417
2.43654
2.39039
2.34838
2.31798
2.30066
2.28962
2.28314
2.28415
2.29055
2.29958
2.3064
2.31112
2.31382
2.31382
2.31263
2.30988
2.30739
2.30375
2.30151
2.29802
2.29415
2.28777
2.28114
2.27356
2.26634
2.25847
2.25112
2.24315
2.2361
2.22823
2.22141
2.21331
2.20606
2.19736
2.18946
2.18045
2.17232
2.16338
2.15531
2.14644
2.1384
2.1295
2.12126
2.11223
2.10376
2.09469
2.08602
2.07705
2.06848
2.05974
2.05158
2.04305
2.03537
2.02693
2.01951
2.01104
2.00351
1.99501
1.98721
1.97884
1.97095
1.96287
1.95532
1.94771
1.94112
1.93488
1.93164
2.22509
2.1697
2.11237
2.05709
2.00276
1.95335
1.90514
1.86153
1.82057
1.78244
1.74892
1.71604
1.68971
1.66359
1.64512
1.6301
1.62945
1.635
1.65463
1.70648
1.82726
2.00799
2.09636
2.14331
2.18569
2.21323
2.25233
2.32376
2.41214
2.47689
2.48593
2.47547
2.44822
2.40242
2.35405
2.31298
2.28224
2.26075
2.24834
2.2415
2.23847
2.24079
2.24779
2.25856
2.26526
2.27167
2.27494
2.27541
2.27458
2.27256
2.26951
2.26769
2.26513
2.26256
2.2572
2.25094
2.243
2.23579
2.22769
2.22044
2.21249
2.20537
2.19758
2.19057
2.18261
2.17525
2.16658
2.15858
2.14934
2.14101
2.13178
2.12351
2.11457
2.10635
2.09764
2.08952
2.08097
2.07285
2.06422
2.05606
2.04718
2.03904
2.02998
2.02197
2.01298
2.00513
1.99647
1.98875
1.98051
1.97285
1.96487
1.95725
1.94926
1.94176
1.93368
1.92646
1.91856
1.91207
1.90553
1.90211
2.22109
2.17127
2.11946
2.06788
2.01724
1.96902
1.92361
1.8804
1.84015
1.80346
1.76773
1.73737
1.70633
1.68199
1.65675
1.63947
1.62544
1.62574
1.63244
1.65432
1.71137
1.83057
2.01391
2.08741
2.1284
2.18327
2.24499
2.34068
2.43417
2.48133
2.48082
2.46538
2.42946
2.38197
2.33495
2.29512
2.26278
2.2392
2.22264
2.21282
2.20907
2.20735
2.20896
2.21452
2.22338
2.22889
2.23603
2.23767
2.23797
2.23663
2.23386
2.23177
2.229
2.22664
2.22189
2.21597
2.20791
2.2003
2.19197
2.18465
2.17664
2.16938
2.16129
2.15392
2.14581
2.13845
2.13032
2.12277
2.11433
2.10647
2.09776
2.08977
2.08093
2.07294
2.06413
2.0563
2.04762
2.03998
2.03146
2.02389
2.01543
2.00773
1.99925
1.99137
1.98292
1.97498
1.96669
1.9589
1.95085
1.94339
1.93551
1.92841
1.92058
1.91373
1.90593
1.89923
1.89167
1.88538
1.87911
1.87553
2.21488
2.17017
2.12422
2.07625
2.02983
1.9833
1.94027
1.89784
1.85917
1.82123
1.78806
1.75433
1.72613
1.6971
1.67393
1.65009
1.63354
1.622
1.62266
1.63108
1.65595
1.72018
1.83705
2.01777
2.09243
2.15356
2.25252
2.38178
2.47065
2.48918
2.48241
2.45938
2.41776
2.36988
2.32601
2.28881
2.25693
2.23189
2.21172
2.19824
2.19007
2.18489
2.18209
2.17915
2.18117
2.18568
2.19136
2.19535
2.19707
2.19673
2.19453
2.19196
2.188
2.18491
2.18047
2.17553
2.16819
2.16094
2.1527
2.1455
2.13764
2.13068
2.12277
2.11554
2.10749
2.10028
2.09246
2.08537
2.07754
2.07015
2.06196
2.05418
2.04581
2.03806
2.02977
2.02211
2.01388
2.00633
1.99821
1.99085
1.98288
1.97564
1.96773
1.96049
1.95254
1.94526
1.93731
1.93011
1.92225
1.9153
1.90761
1.90099
1.89348
1.88713
1.87982
1.87367
1.8667
1.861
1.8552
1.85208
2.20594
2.16668
2.12475
2.08192
2.03847
1.99634
1.95414
1.91504
1.87617
1.84062
1.8058
1.77442
1.74357
1.71627
1.68964
1.66684
1.64527
1.6284
1.62054
1.62202
1.63251
1.66118
1.73514
1.85953
2.03608
2.14749
2.28854
2.43125
2.50339
2.50664
2.49407
2.46174
2.41314
2.36832
2.32768
2.294
2.26299
2.23512
2.21061
2.19184
2.17644
2.16499
2.15636
2.1478
2.14167
2.13876
2.14039
2.14416
2.14758
2.14895
2.14844
2.14625
2.14195
2.1381
2.13379
2.13012
2.12463
2.1187
2.11145
2.10483
2.09745
2.09098
2.08373
2.07716
2.06967
2.06278
2.05517
2.04827
2.04082
2.03401
2.02645
2.01948
2.01175
2.00468
1.99693
1.98992
1.98228
1.97534
1.96777
1.96085
1.95334
1.94648
1.93908
1.93226
1.92495
1.91815
1.91089
1.90412
1.89689
1.8903
1.88311
1.87683
1.86977
1.86382
1.85698
1.85137
1.84491
1.83989
1.83459
1.83205
2.19643
2.16154
2.12384
2.08511
2.04443
2.0057
1.96589
1.9286
1.89128
1.8571
1.82272
1.79212
1.76121
1.73406
1.70638
1.68378
1.65921
1.64202
1.62498
1.62173
1.62581
1.64009
1.67743
1.76687
1.91725
2.12563
2.34711
2.50203
2.53222
2.5251
2.50296
2.46208
2.41745
2.3764
2.33943
2.30344
2.26886
2.23601
2.20786
2.18225
2.16118
2.14243
2.12625
2.11137
2.101
2.09138
2.08727
2.08744
2.08999
2.09415
2.09565
2.09546
2.09402
2.09115
2.08754
2.08496
2.08159
2.07804
2.07257
2.06723
2.06077
2.05495
2.04836
2.04255
2.03604
2.03013
2.02346
2.01718
2.01025
2.00375
1.99679
1.9904
1.98344
1.97699
1.96985
1.96328
1.95603
1.94942
1.94216
1.93558
1.92836
1.92188
1.91474
1.90841
1.90136
1.89518
1.88817
1.88208
1.87503
1.869
1.86193
1.85601
1.84903
1.84332
1.83661
1.83124
1.82506
1.82035
1.81552
1.81305
2.18638
2.15511
2.12088
2.0857
2.04861
2.01125
1.97567
1.93874
1.90478
1.87012
1.83871
1.80674
1.77864
1.74929
1.72433
1.69833
1.67622
1.65505
1.63697
1.62759
1.62854
1.63748
1.66156
1.72037
1.84158
2.0853
2.38705
2.55273
2.56625
2.55242
2.52015
2.47587
2.43314
2.39008
2.34758
2.30476
2.26397
2.22672
2.19308
2.1639
2.13745
2.11265
2.09197
2.07361
2.05924
2.04913
2.04157
2.03764
2.03611
2.03843
2.0414
2.04585
2.04774
2.0492
2.04828
2.047
2.04457
2.04254
2.03875
2.0345
2.02898
2.02384
2.01787
2.01242
2.00637
2.00084
1.99474
1.98902
1.98264
1.97666
1.97012
1.96407
1.95744
1.9514
1.94467
1.93857
1.93167
1.92538
1.91828
1.91181
1.90461
1.89811
1.89093
1.88456
1.87744
1.87127
1.86421
1.8583
1.85134
1.84573
1.83893
1.83364
1.82711
1.82218
1.81609
1.81161
1.80617
1.80241
1.79811
1.79643
2.17423
2.14682
2.11635
2.08353
2.05139
2.01499
1.98189
1.94719
1.91451
1.88158
1.85101
1.81998
1.79271
1.76351
1.73964
1.7127
1.69201
1.66886
1.65186
1.63985
1.64039
1.64797
1.66858
1.71857
1.82529
2.05728
2.34207
2.53473
2.55005
2.53103
2.49694
2.45042
2.39882
2.34854
2.30421
2.26565
2.22958
2.19444
2.1608
2.13105
2.10449
2.0814
2.05974
2.04193
2.02756
2.01652
2.00709
2.00108
1.99672
1.99514
1.9967
2.0009
2.00576
2.00952
2.01175
2.01243
2.0112
2.00985
2.00727
2.00434
1.99968
1.99504
1.9895
1.98442
1.97862
1.97319
1.96704
1.96118
1.95482
1.94899
1.9427
1.93694
1.9306
1.9248
1.91835
1.91255
1.90607
1.90032
1.89382
1.88808
1.88151
1.87572
1.86907
1.8633
1.85661
1.851
1.84432
1.83894
1.83234
1.8272
1.8208
1.81592
1.80987
1.80544
1.79991
1.79617
1.79117
1.78816
1.7847
1.78374
2.16255
2.13475
2.10944
2.07877
2.04925
2.01823
1.98545
1.95348
1.92304
1.89026
1.8627
1.83073
1.8056
1.77611
1.75282
1.72681
1.70528
1.68434
1.66658
1.6587
1.6613
1.67091
1.69434
1.75255
1.84556
2.03195
2.22674
2.41596
2.46634
2.45773
2.43664
2.39112
2.3444
2.30544
2.27017
2.23631
2.20264
2.17099
2.14129
2.11439
2.08944
2.06584
2.04411
2.02452
2.0071
1.99264
1.98069
1.97171
1.96464
1.96111
1.95933
1.95968
1.9625
1.96612
1.97053
1.97272
1.97501
1.97487
1.97397
1.97289
1.97063
1.96735
1.96233
1.95758
1.95221
1.94734
1.94185
1.93677
1.93112
1.92591
1.92009
1.91484
1.90892
1.90368
1.89766
1.89234
1.88615
1.88065
1.87425
1.86858
1.86201
1.8563
1.84964
1.84405
1.8374
1.83202
1.82551
1.82037
1.8141
1.80928
1.80333
1.79901
1.79355
1.78997
1.78504
1.78218
1.77797
1.77635
1.77431
1.77438
2.1497
2.12459
2.09876
2.07352
2.04448
2.01653
1.98817
1.95627
1.92911
1.89767
1.87071
1.84183
1.81514
1.78914
1.76365
1.74097
1.71786
1.70006
1.68535
1.68426
1.69052
1.70672
1.74347
1.82107
1.94195
2.03859
2.1307
2.26205
2.36153
2.39141
2.38511
2.36983
2.33559
2.29506
2.25735
2.2232
2.1909
2.16025
2.13221
2.10561
2.08028
2.05575
2.03313
2.01227
1.99363
1.9766
1.96242
1.95068
1.94123
1.9335
1.92905
1.92662
1.92632
1.92801
1.93214
1.93638
1.94043
1.94248
1.94341
1.94278
1.94146
1.93988
1.93668
1.9328
1.92771
1.92296
1.91746
1.9126
1.90714
1.9023
1.89679
1.8919
1.88624
1.88125
1.87538
1.87026
1.86418
1.85897
1.85274
1.84748
1.84116
1.83589
1.8296
1.82442
1.81825
1.81328
1.80731
1.80267
1.79697
1.79284
1.78751
1.78417
1.77935
1.77667
1.77245
1.77063
1.76819
1.76801
1.76826
1.76845
2.13806
2.11338
2.0889
2.06467
2.03979
2.01242
1.98667
1.95879
1.93121
1.90366
1.87649
1.84971
1.82417
1.79877
1.77508
1.75199
1.73273
1.7156
1.71151
1.71643
1.72933
1.7596
1.82435
1.92932
2.00477
2.0457
2.0772
2.13862
2.22907
2.30013
2.33117
2.32746
2.31441
2.28903
2.25372
2.21868
2.185
2.15403
2.12578
2.09869
2.07285
2.04807
2.02548
2.0039
1.98395
1.96509
1.94865
1.93407
1.92235
1.91223
1.90389
1.89804
1.89515
1.89371
1.89406
1.89638
1.90081
1.90457
1.90789
1.90975
1.91007
1.90943
1.90814
1.9063
1.90257
1.8984
1.8933
1.88882
1.88371
1.87923
1.874
1.86943
1.86399
1.85938
1.85374
1.84908
1.84327
1.83851
1.83257
1.82767
1.82169
1.81671
1.81074
1.80587
1.79995
1.79547
1.78967
1.78584
1.78039
1.77733
1.77271
1.77012
1.76652
1.7644
1.76247
1.76189
1.76245
1.76392
1.76726
1.76677
2.1223
2.10251
2.07825
2.05659
2.03229
2.00874
1.98319
1.95769
1.93286
1.90606
1.88107
1.85548
1.83067
1.80737
1.78441
1.76403
1.74694
1.73986
1.74337
1.7551
1.78221
1.83855
1.93763
2.01359
2.04039
2.04698
2.05307
2.07168
2.11328
2.1757
2.24153
2.27925
2.28122
2.27094
2.25163
2.22059
2.1852
2.15239
2.12272
2.09435
2.06748
2.0427
2.01926
1.99705
1.97552
1.95596
1.93772
1.92173
1.90702
1.89474
1.88399
1.8751
1.86805
1.86438
1.86249
1.86233
1.86376
1.8676
1.87113
1.87538
1.87751
1.87894
1.87862
1.8779
1.87629
1.87395
1.86956
1.8654
1.86043
1.85621
1.85117
1.84702
1.84178
1.83752
1.83209
1.82769
1.8222
1.81766
1.81214
1.80756
1.80193
1.79753
1.79174
1.78773
1.78198
1.77839
1.77322
1.77005
1.76607
1.76342
1.76036
1.75825
1.75649
1.75596
1.75651
1.75778
1.75976
1.76293
1.77056
1.77189
2.10808
2.09156
2.06839
2.04626
2.02501
2.00175
1.97987
1.95492
1.93173
1.90774
1.88341
1.85973
1.83629
1.81397
1.79398
1.77642
1.76823
1.77058
1.78164
1.80671
1.85866
1.95617
2.03231
2.05738
2.05585
2.04802
2.0381
2.03848
2.04805
2.07843
2.12625
2.19148
2.2313
2.23735
2.22898
2.21462
2.18689
2.15459
2.12248
2.09173
2.0634
2.03775
2.01356
1.9906
1.96867
1.94843
1.92948
1.91167
1.89505
1.88013
1.86706
1.85612
1.84659
1.83896
1.83421
1.83194
1.83129
1.83175
1.83402
1.83851
1.84194
1.84569
1.84724
1.84822
1.84778
1.84689
1.84484
1.84199
1.83743
1.83347
1.82859
1.82456
1.81969
1.81564
1.81067
1.80667
1.80148
1.79761
1.79217
1.78844
1.78291
1.77923
1.77398
1.77034
1.76575
1.76239
1.7588
1.75618
1.75347
1.7515
1.74997
1.74951
1.75012
1.75143
1.75341
1.75676
1.76316
1.76892
1.77707
1.78125
2.0882
2.0775
2.0585
2.03656
2.01541
1.99489
1.97313
1.95197
1.9288
1.90679
1.88434
1.86249
1.84052
1.82095
1.80379
1.79515
1.79698
1.80802
1.8324
1.88277
1.9758
2.05277
2.07778
2.07469
2.06397
2.04372
2.02611
2.0172
2.01774
2.02424
2.04533
2.08397
2.14411
2.17838
2.19045
2.18554
2.17525
2.15361
2.12329
2.09098
2.06133
2.0345
2.00912
1.98467
1.96229
1.94126
1.92158
1.9025
1.88485
1.86829
1.85377
1.84055
1.82926
1.81917
1.811
1.80515
1.80216
1.80103
1.80107
1.80246
1.8056
1.81004
1.81379
1.81657
1.81812
1.81817
1.81778
1.81663
1.81402
1.81075
1.80634
1.80274
1.79796
1.79457
1.78959
1.78629
1.78124
1.77788
1.77295
1.76944
1.76481
1.76124
1.75714
1.75386
1.75062
1.74812
1.74595
1.74412
1.74288
1.74272
1.74339
1.74507
1.74704
1.75144
1.75653
1.76387
1.77037
1.77833
1.7863
1.78972
2.06778
2.06253
2.04741
2.02713
2.00677
1.98676
1.9671
1.9462
1.92617
1.90441
1.88397
1.86364
1.84504
1.82849
1.82011
1.82205
1.83348
1.85811
1.90851
1.9988
2.07752
2.10214
2.09852
2.08599
2.0648
2.04079
2.01736
2.00273
1.9955
1.99585
1.99983
2.01453
2.04704
2.09139
2.12511
2.14496
2.14289
2.1343
2.11829
2.09115
2.06262
2.03427
2.00635
1.98049
1.95682
1.93531
1.9144
1.89488
1.8759
1.85896
1.84252
1.82801
1.81447
1.80295
1.79263
1.78398
1.77734
1.77339
1.77148
1.77119
1.77181
1.77398
1.77843
1.78187
1.78604
1.78778
1.78928
1.78916
1.78858
1.78714
1.7839
1.78113
1.77654
1.7735
1.76897
1.76589
1.76158
1.75835
1.75437
1.75109
1.74755
1.74453
1.74171
1.73948
1.73778
1.73625
1.73532
1.73547
1.73626
1.73805
1.74048
1.74565
1.75037
1.75835
1.76504
1.77271
1.7803
1.78488
1.79136
1.79184
2.03784
2.04186
2.03448
2.01839
1.99796
1.97837
1.95945
1.94058
1.92123
1.90227
1.88297
1.86533
1.8503
1.84275
1.84529
1.8574
1.88311
1.93361
2.02434
2.10369
2.1281
2.1235
2.11055
2.08726
2.05919
2.03517
2.01229
1.9956
1.98217
1.97486
1.97297
1.97397
1.98278
2.00641
2.03727
2.07616
2.09568
2.09802
2.09183
2.08043
2.06058
2.03432
2.00508
1.97799
1.95345
1.93042
1.90838
1.88745
1.86843
1.85012
1.83342
1.81696
1.80249
1.78881
1.77739
1.76659
1.7576
1.75015
1.74544
1.74268
1.7421
1.74223
1.74368
1.7467
1.75159
1.75512
1.75899
1.76009
1.76147
1.76133
1.76054
1.75891
1.75552
1.75275
1.74903
1.74601
1.74256
1.73959
1.73652
1.73386
1.73143
1.72953
1.7282
1.72731
1.72682
1.72719
1.72841
1.73013
1.73317
1.73902
1.74432
1.75214
1.75988
1.76694
1.77496
1.77921
1.7845
1.78559
1.78693
1.78611
2.00212
2.02049
2.01896
2.0076
1.99002
1.9705
1.95188
1.9342
1.91644
1.89907
1.88282
1.86885
1.86244
1.8661
1.87926
1.90717
1.95894
2.05109
2.12784
2.15111
2.14586
2.13271
2.10854
2.08008
2.05342
2.03175
2.01017
1.99262
1.97579
1.96048
1.95358
1.94692
1.94715
1.95049
1.96366
1.9894
2.02089
2.04081
2.05295
2.04993
2.04241
2.02754
2.00392
1.97791
1.95233
1.92692
1.90324
1.88134
1.86168
1.84264
1.82463
1.80738
1.7917
1.77725
1.76389
1.75197
1.74089
1.73151
1.72363
1.71823
1.71478
1.71352
1.71357
1.71452
1.7173
1.72108
1.7261
1.72964
1.73278
1.73394
1.73503
1.73488
1.73401
1.73225
1.72955
1.72694
1.7243
1.72195
1.71992
1.71837
1.71748
1.71733
1.71748
1.71814
1.71947
1.7218
1.72527
1.73159
1.73773
1.74501
1.75407
1.76059
1.76883
1.7735
1.77746
1.77919
1.7788
1.77785
1.77556
1.77338
1.92844
1.98806
1.99801
1.99408
1.98092
1.96317
1.94499
1.92816
1.9119
1.89709
1.88448
1.87985
1.88493
1.89943
1.9301
1.98474
2.07692
2.15346
2.17426
2.16841
2.15437
2.12965
2.09995
2.07346
2.05018
2.0292
2.00952
1.9898
1.9721
1.95291
1.93986
1.927
1.92004
1.9169
1.9176
1.9239
1.94059
1.96552
1.99161
2.0044
2.00692
2.00201
1.99214
1.97561
1.9515
1.92491
1.89982
1.87762
1.85649
1.8364
1.81668
1.79925
1.78233
1.76732
1.75232
1.73921
1.72667
1.71623
1.70612
1.69835
1.69184
1.6879
1.68593
1.68598
1.68661
1.68851
1.69268
1.69716
1.7022
1.70535
1.70837
1.70931
1.71072
1.71065
1.71008
1.70882
1.70726
1.70602
1.70536
1.70557
1.70632
1.70756
1.70914
1.71242
1.71665
1.72303
1.73061
1.73769
1.74713
1.75464
1.76186
1.76734
1.77076
1.77199
1.77165
1.77053
1.76796
1.76369
1.75958
1.75696
1.78989
1.94156
1.97222
1.97579
1.96999
1.95628
1.93889
1.92236
1.90827
1.89691
1.89417
1.90113
1.91755
1.95103
2.01175
2.10297
2.17635
2.19675
2.19083
2.17514
2.14946
2.11901
2.09277
2.06877
2.04738
2.02745
2.00694
1.98771
1.96779
1.9482
1.93083
1.91408
1.90101
1.8934
1.88493
1.88524
1.88703
1.896
1.9151
1.93689
1.95368
1.96405
1.96154
1.95515
1.94229
1.92244
1.89937
1.87624
1.85249
1.82989
1.80975
1.79181
1.77493
1.75811
1.74254
1.72745
1.71475
1.70219
1.69178
1.68136
1.67334
1.66628
1.66206
1.65928
1.65913
1.65956
1.66111
1.66436
1.66988
1.67453
1.67954
1.68309
1.68598
1.68836
1.68942
1.69093
1.69159
1.69273
1.69385
1.69558
1.69811
1.70199
1.70731
1.71372
1.72169
1.72998
1.73936
1.74773
1.75488
1.76028
1.76362
1.76429
1.76393
1.76268
1.75989
1.75537
1.75072
1.74643
1.74225
1.73999
1.57822
1.8558
1.94243
1.95772
1.95741
1.94874
1.93447
1.91863
1.90687
1.90538
1.91445
1.93309
1.97035
2.03856
2.13137
2.1989
2.2174
2.21082
2.19409
2.16605
2.1364
2.11014
2.08634
2.06548
2.04443
2.02473
2.0043
1.98389
1.96414
1.94302