/*--------------------------------*- C++ -*----------------------------------*\
  =========                 |
  \\      /  F ield         | OpenFOAM: The Open Source CFD Toolbox
   \\    /   O peration     | Website:  https://openfoam.org
    \\  /    A nd           | Version:  13
     \\/     M anipulation  |
\*---------------------------------------------------------------------------*/
FoamFile
{
    format      ascii;
    class       volVectorField;
    location    "4";
    object      U;
}
// * * * * * * * * * * * * * * * * * * * * * * * * * * * * * * * * * * * * * //

dimensions      [0 1 -1 0 0 0 0];

internalField   nonuniform List<vector> 
5250
(
(3 -3.83439e-09 0)
(2.99999 1.17107e-07 0)
(2.99996 6.79121e-09 0)
(2.99991 1.20166e-06 0)
(2.99978 2.63836e-07 0)
(2.99946 7.90332e-06 0)
(2.99866 3.74769e-06 0)
(2.9967 4.56983e-05 0)
(2.99184 4.21766e-05 0)
(2.97963 0.000237077 0)
(2.94796 0.0004058 0)
(2.86129 0.00130491 0)
(2.61003 0.00336375 0)
(1.87342 0.00978149 0)
(0.87024 0.0265316 0)
(0.442634 0.0244235 0)
(0.534947 0.0244929 0)
(0.560037 0.026345 0)
(0.505249 0.0282124 0)
(0.414394 0.0301034 0)
(0.329571 0.0323258 0)
(0.260986 0.0348795 0)
(0.191837 0.0375009 0)
(0.114486 0.0404682 0)
(0.0498369 0.0444759 0)
(3 4.28068e-08 0)
(2.99999 2.10825e-07 0)
(2.99997 8.58685e-07 0)
(2.99991 2.11464e-06 0)
(2.99979 6.33166e-06 0)
(2.99946 1.41894e-05 0)
(2.9987 4.09869e-05 0)
(2.99673 8.70311e-05 0)
(2.992 0.00025212 0)
(2.97993 0.000549846 0)
(2.94886 0.00151507 0)
(2.86371 0.00378194 0)
(2.6171 0.0106031 0)
(1.89198 0.0302984 0)
(0.88087 0.0808964 0)
(0.439242 0.0705247 0)
(0.534959 0.067441 0)
(0.561267 0.0704315 0)
(0.506197 0.0734833 0)
(0.41539 0.0766836 0)
(0.330561 0.0802225 0)
(0.261399 0.0840171 0)
(0.191231 0.0874166 0)
(0.112538 0.0905442 0)
(0.047231 0.0932519 0)
(3 6.33186e-08 0)
(2.99999 3.89506e-07 0)
(2.99997 1.3762e-06 0)
(2.99992 3.78905e-06 0)
(2.99979 1.02044e-05 0)
(2.99949 2.52461e-05 0)
(2.99872 6.4467e-05 0)
(2.99688 0.000157329 0)
(2.99222 0.000394564 0)
(2.98068 0.000975703 0)
(2.95066 0.00246736 0)
(2.86885 0.00644293 0)
(2.63224 0.0178027 0)
(1.93356 0.0513612 0)
(0.906505 0.138798 0)
(0.436658 0.119849 0)
(0.538908 0.113344 0)
(0.56798 0.118514 0)
(0.512774 0.124287 0)
(0.422281 0.130949 0)
(0.337433 0.137651 0)
(0.267463 0.144577 0)
(0.195881 0.151063 0)
(0.115226 0.156701 0)
(0.0475157 0.160144 0)
(3 6.57473e-08 0)
(2.99999 5.99379e-07 0)
(2.99997 1.57182e-06 0)
(2.99992 5.84719e-06 0)
(2.9998 1.19219e-05 0)
(2.99951 3.84576e-05 0)
(2.99881 7.63315e-05 0)
(2.99701 0.000235538 0)
(2.99268 0.000486355 0)
(2.98166 0.00140267 0)
(2.95342 0.00324112 0)
(2.87652 0.00886664 0)
(2.65479 0.0241005 0)
(1.99736 0.069951 0)
(0.947603 0.192724 0)
(0.437032 0.168559 0)
(0.5479 0.158751 0)
(0.581233 0.16591 0)
(0.526135 0.174554 0)
(0.436019 0.185284 0)
(0.350704 0.195655 0)
(0.279555 0.20629 0)
(0.206037 0.216651 0)
(0.122141 0.225594 0)
(0.050069 0.230244 0)
(3 1.01441e-07 0)
(2.99999 6.33202e-07 0)
(2.99997 2.18042e-06 0)
(2.99993 6.19054e-06 0)
(2.99982 1.62061e-05 0)
(2.99954 4.07524e-05 0)
(2.99889 0.000103375 0)
(2.99722 0.00025254 0)
(2.9932 0.000641784 0)
(2.98297 0.00157967 0)
(2.9569 0.00402834 0)
(2.88626 0.0104893 0)
(2.68362 0.0289975 0)
(2.08095 0.0840084 0)
(1.00581 0.238421 0)
(0.446285 0.218613 0)
(0.563839 0.206637 0)
(0.601932 0.214364 0)
(0.547188 0.224909 0)
(0.457488 0.239495 0)
(0.371049 0.253808 0)
(0.298153 0.268697 0)
(0.221903 0.283754 0)
(0.133255 0.297146 0)
(0.0547195 0.304052 0)
(3 1.17232e-07 0)
(2.99999 6.08622e-07 0)
(2.99997 2.463e-06 0)
(2.99993 5.94912e-06 0)
(2.99983 1.82278e-05 0)
(2.99958 4.02407e-05 0)
(2.99898 0.000115868 0)
(2.99746 0.000254673 0)
(2.99379 0.000707972 0)
(2.98448 0.00163106 0)
(2.96086 0.00433411 0)
(2.89737 0.0109976 0)
(2.71671 0.0305116 0)
(2.18084 0.0880909 0)
(1.08831 0.257452 0)
(0.479877 0.263316 0)
(0.592425 0.257091 0)
(0.632687 0.265151 0)
(0.578282 0.27687 0)
(0.489008 0.29501 0)
(0.400669 0.313908 0)
(0.325132 0.334006 0)
(0.245268 0.355161 0)
(0.150206 0.375116 0)
(0.062447 0.386717 0)
(3 1.09206e-07 0)
(2.99999 6.23558e-07 0)
(2.99998 2.28197e-06 0)
(2.99994 6.07721e-06 0)
(2.99985 1.69623e-05 0)
(2.99962 3.98956e-05 0)
(2.99907 0.000108707 0)
(2.99771 0.000243821 0)
(2.99434 0.000666376 0)
(2.986 0.00151862 0)
(2.9647 0.00402484 0)
(2.90815 0.0100475 0)
(2.74835 0.0275291 0)
(2.27758 0.0781728 0)
(1.18747 0.231558 0)
(0.528757 0.296374 0)
(0.624692 0.309713 0)
(0.664877 0.31738 0)
(0.613588 0.329906 0)
(0.527631 0.352024 0)
(0.438841 0.376667 0)
(0.361157 0.403387 0)
(0.277782 0.43264 0)
(0.175382 0.462592 0)
(0.0750748 0.483911 0)
(3 9.72323e-08 0)
(2.99999 5.9466e-07 0)
(2.99998 2.07064e-06 0)
(2.99994 5.80873e-06 0)
(2.99986 1.52482e-05 0)
(2.99966 3.81657e-05 0)
(2.99915 9.54031e-05 0)
(2.99792 0.000233282 0)
(2.99485 0.000581947 0)
(2.98727 0.00141898 0)
(2.96798 0.00356493 0)
(2.91692 0.00902939 0)
(2.77353 0.0241226 0)
(2.35 0.067577 0)
(1.29055 0.199317 0)
(0.575088 0.33704 0)
(0.639451 0.370719 0)
(0.679264 0.369183 0)
(0.640694 0.381888 0)
(0.565473 0.408365 0)
(0.481186 0.440783 0)
(0.404746 0.476376 0)
(0.320769 0.516788 0)
(0.212745 0.562301 0)
(0.0963702 0.604684 0)
(3 8.84921e-08 0)
(2.99999 5.87538e-07 0)
(2.99998 1.96575e-06 0)
(2.99995 5.75923e-06 0)
(2.99987 1.45407e-05 0)
(2.99969 3.82529e-05 0)
(2.99923 9.04956e-05 0)
(2.99812 0.000235965 0)
(2.99533 0.000549965 0)
(2.98848 0.00142532 0)
(2.97104 0.0034191 0)
(2.92525 0.00886748 0)
(2.79687 0.0233004 0)
(2.41995 0.0653137 0)
(1.42025 0.192352 0)
(0.655657 0.386744 0)
(0.647363 0.419243 0)
(0.677644 0.415403 0)
(0.6609 0.431961 0)
(0.601749 0.461656 0)
(0.526955 0.503396 0)
(0.455977 0.550415 0)
(0.376893 0.605358 0)
(0.270813 0.676608 0)
(0.134937 0.764071 0)
(3 8.6058e-08 0)
(2.99999 6.22099e-07 0)
(2.99998 1.90234e-06 0)
(2.99995 6.07354e-06 0)
(2.99989 1.42737e-05 0)
(2.99972 3.94424e-05 0)
(2.99932 9.16124e-05 0)
(2.9983 0.000238333 0)
(2.99584 0.000568128 0)
(2.98967 0.00143326 0)
(2.97418 0.00351613 0)
(2.93348 0.00898032 0)
(2.82044 0.023629 0)
(2.48981 0.0660134 0)
(1.57422 0.193038 0)
(0.756457 0.434983 0)
(0.654627 0.451558 0)
(0.682789 0.453744 0)
(0.680895 0.476806 0)
(0.637699 0.510738 0)
(0.577485 0.560986 0)
(0.516558 0.620213 0)
(0.45256 0.696705 0)
(0.366894 0.813218 0)
(0.207659 1.02392 0)
(3 9.91233e-08 0)
(2.99999 5.81145e-07 0)
(2.99998 2.15192e-06 0)
(2.99996 5.67483e-06 0)
(2.9999 1.59959e-05 0)
(2.99975 3.82449e-05 0)
(2.9994 9.93249e-05 0)
(2.99852 0.000239791 0)
(2.99633 0.000598147 0)
(2.99094 0.00147932 0)
(2.97734 0.00365571 0)
(2.94197 0.00929778 0)
(2.84448 0.0243374 0)
(2.56081 0.0678556 0)
(1.749 0.196785 0)
(0.875891 0.483334 0)
(0.663957 0.485783 0)
(0.695141 0.488419 0)
(0.706215 0.513349 0)
(0.676946 0.553309 0)
(0.633051 0.609301 0)
(0.591092 0.680068 0)
(0.561882 0.777128 0)
(0.561625 0.925418 0)
(0.603636 1.17602 0)
(3 9.53824e-08 0)
(2.99999 6.12693e-07 0)
(2.99999 2.11284e-06 0)
(2.99997 5.98657e-06 0)
(2.99991 1.57771e-05 0)
(2.99979 4.02049e-05 0)
(2.99948 9.87239e-05 0)
(2.99872 0.000251632 0)
(2.99687 0.000600958 0)
(2.99222 0.00154527 0)
(2.98069 0.00372262 0)
(2.95075 0.00961532 0)
(2.86917 0.0248744 0)
(2.63415 0.0691565 0)
(1.94487 0.200044 0)
(1.01805 0.526396 0)
(0.684145 0.523977 0)
(0.716423 0.52469 0)
(0.738683 0.544646 0)
(0.722074 0.588222 0)
(0.694276 0.64779 0)
(0.675282 0.726298 0)
(0.682632 0.832301 0)
(0.745636 0.978324 0)
(0.901019 1.1701 0)
(3 9.62469e-08 0)
(3 5.87576e-07 0)
(2.99999 2.06522e-06 0)
(2.99997 5.75454e-06 0)
(2.99993 1.53108e-05 0)
(2.99982 3.84639e-05 0)
(2.99957 9.73835e-05 0)
(2.99893 0.00023902 0)
(2.99741 0.000603364 0)
(2.99354 0.00147565 0)
(2.98406 0.00372505 0)
(2.95962 0.00933997 0)
(2.89414 0.0244162 0)
(2.70786 0.0670535 0)
(2.15708 0.194308 0)
(1.19156 0.54418 0)
(0.735697 0.566194 0)
(0.754875 0.571081 0)
(0.781608 0.57855 0)
(0.776372 0.618676 0)
(0.761342 0.678655 0)
(0.762381 0.757197 0)
(0.795735 0.85802 0)
(0.885911 0.980504 0)
(1.06423 1.10156 0)
(3 8.72367e-08 0)
(3 5.06331e-07 0)
(2.99999 1.86327e-06 0)
(2.99998 4.95612e-06 0)
(2.99994 1.37685e-05 0)
(2.99986 3.30531e-05 0)
(2.99965 8.6876e-05 0)
(2.99914 0.000204787 0)
(2.9979 0.00053015 0)
(2.99482 0.00126098 0)
(2.98724 0.00321968 0)
(2.96801 0.00790235 0)
(2.91741 0.0205123 0)
(2.77681 0.0550662 0)
(2.36722 0.157481 0)
(1.41166 0.465349 0)
(0.837162 0.589743 0)
(0.814825 0.614455 0)
(0.832673 0.620634 0)
(0.839335 0.650611 0)
(0.833372 0.704496 0)
(0.845878 0.775583 0)
(0.892865 0.861601 0)
(0.989387 0.956738 0)
(1.15832 1.03427 0)
(3 6.65663e-08 0)
(3 4.48343e-07 0)
(2.99999 1.45289e-06 0)
(2.99998 4.37661e-06 0)
(2.99995 1.08275e-05 0)
(2.99988 2.86011e-05 0)
(2.99972 6.85626e-05 0)
(2.9993 0.00017315 0)
(2.99829 0.000419264 0)
(2.99578 0.00103639 0)
(2.9896 0.00254821 0)
(2.97403 0.00629857 0)
(2.93341 0.01591 0)
(2.82132 0.0417431 0)
(2.4966 0.115839 0)
(1.62758 0.344474 0)
(0.935481 0.623924 0)
(0.855823 0.656295 0)
(0.872265 0.668137 0)
(0.892242 0.68489 0)
(0.899982 0.72758 0)
(0.920976 0.787051 0)
(0.973509 0.856307 0)
(1.06766 0.927833 0)
(1.21869 0.981078 0)
(3 6.03023e-08 0)
(3 3.78548e-07 0)
(2.99999 1.29945e-06 0)
(2.99998 3.6938e-06 0)
(2.99996 9.62628e-06 0)
(2.99991 2.43351e-05 0)
(2.99977 6.04264e-05 0)
(2.99943 0.000149123 0)
(2.99862 0.000368399 0)
(2.99659 0.000900371 0)
(2.99163 0.00223825 0)
(2.97911 0.00549439 0)
(2.94689 0.013902 0)
(2.85877 0.0361173 0)
(2.60553 0.0995647 0)
(1.88166 0.290236 0)
(1.08566 0.665763 0)
(0.886161 0.691913 0)
(0.899285 0.704504 0)
(0.930215 0.712692 0)
(0.95565 0.745619 0)
(0.98534 0.794258 0)
(1.03995 0.849235 0)
(1.12872 0.902788 0)
(1.26123 0.940852 0)
(3 5.34637e-08 0)
(3 3.29094e-07 0)
(3 1.15906e-06 0)
(2.99999 3.20577e-06 0)
(2.99997 8.61046e-06 0)
(2.99993 2.12899e-05 0)
(2.99982 5.40778e-05 0)
(2.99956 0.000132032 0)
(2.99891 0.000328892 0)
(2.99734 0.000809496 0)
(2.99343 0.00200269 0)
(2.98375 0.00498577 0)
(2.95891 0.0125166 0)
(2.89239 0.0325613 0)
(2.70336 0.0891162 0)
(2.14741 0.257943 0)
(1.2812 0.680087 0)
(0.93718 0.723852 0)
(0.934047 0.732806 0)
(0.966508 0.736426 0)
(1.00512 0.758142 0)
(1.04158 0.797459 0)
(1.09594 0.841846 0)
(1.17805 0.882765 0)
(1.29385 0.910591 0)
(3 4.18346e-08 0)
(3 2.8061e-07 0)
(3 9.23491e-07 0)
(2.99999 2.73552e-06 0)
(2.99998 6.87405e-06 0)
(2.99994 1.80635e-05 0)
(2.99986 4.33194e-05 0)
(2.99966 0.000111089 0)
(2.99919 0.000264769 0)
(2.99798 0.000673927 0)
(2.99511 0.00161536 0)
(2.98788 0.0040945 0)
(2.96987 0.0100466 0)
(2.92263 0.0260182 0)
(2.79269 0.069588 0)
(2.41625 0.198953 0)
(1.55126 0.575775 0)
(1.04805 0.731077 0)
(0.994153 0.755433 0)
(1.01209 0.764283 0)
(1.05366 0.773837 0)
(1.09498 0.801819 0)
(1.14667 0.836401 0)
(1.22067 0.86775 0)
(1.32147 0.888173 0)
(3 3.55964e-08 0)
(3 2.10458e-07 0)
(3 7.61606e-07 0)
(2.99999 2.04831e-06 0)
(2.99998 5.60755e-06 0)
(2.99996 1.35091e-05 0)
(2.9999 3.49351e-05 0)
(2.99974 8.26821e-05 0)
(2.99938 0.000210286 0)
(2.99847 0.000498154 0)
(2.99628 0.00125437 0)
(2.99077 0.00301202 0)
(2.97718 0.00751607 0)
(2.94186 0.0187371 0)
(2.84574 0.048919 0)
(2.57081 0.134488 0)
(1.82234 0.399877 0)
(1.16866 0.736444 0)
(1.04293 0.776275 0)
(1.0507 0.793515 0)
(1.09194 0.79581 0)
(1.14011 0.810767 0)
(1.1912 0.835142 0)
(1.25818 0.858257 0)
(1.34627 0.872739 0)
(3 2.81807e-08 0)
(3 1.7082e-07 0)
(3 6.02191e-07 0)
(2.99999 1.66604e-06 0)
(2.99999 4.44896e-06 0)
(2.99997 1.09848e-05 0)
(2.99992 2.80359e-05 0)
(2.99981 6.6939e-05 0)
(2.99953 0.000170551 0)
(2.99885 0.000403636 0)
(2.99721 0.00102869 0)
(2.99309 0.00245398 0)
(2.98296 0.00621868 0)
(2.95696 0.0153281 0)
(2.88726 0.0399943 0)
(2.69008 0.108528 0)
(2.1152 0.316662 0)
(1.35044 0.755592 0)
(1.09259 0.808106 0)
(1.08585 0.820662 0)
(1.12153 0.819274 0)
(1.17569 0.821257 0)
(1.22929 0.836304 0)
(1.29129 0.852729 0)
(1.36904 0.862617 0)
(3 2.14476e-08 0)
(3 1.35689e-07 0)
(3 4.61667e-07 0)
(3 1.32391e-06 0)
(2.99999 3.41744e-06 0)
(2.99998 8.7053e-06 0)
(2.99994 2.15855e-05 0)
(2.99986 5.29813e-05 0)
(2.99966 0.000131765 0)
(2.99918 0.000318848 0)
(2.99799 0.000798967 0)
(2.99509 0.00192643 0)
(2.98791 0.00485406 0)
(2.96997 0.0119197 0)
(2.92306 0.0307718 0)
(2.79486 0.0821391 0)
(2.42196 0.235471 0)
(1.62775 0.651754 0)
(1.19783 0.809948 0)
(1.14199 0.835252 0)
(1.15894 0.841615 0)
(1.20939 0.836174 0)
(1.26522 0.84108 0)
(1.32282 0.850746 0)
(1.3915 0.856564 0)
(3 1.54844e-08 0)
(3 1.03844e-07 0)
(3 3.39628e-07 0)
(3 1.00949e-06 0)
(2.99999 2.51389e-06 0)
(2.99998 6.60408e-06 0)
(2.99996 1.57232e-05 0)
(2.9999 4.00265e-05 0)
(2.99976 9.52778e-05 0)
(2.99941 0.000238131 0)
(2.99854 0.000572997 0)
(2.99647 0.00141507 0)
(2.99129 0.00345265 0)
(2.97853 0.00850741 0)
(2.94559 0.021318 0)
(2.85693 0.055342 0)
(2.60479 0.152247 0)
(1.92634 0.448204 0)
(1.32863 0.797205 0)
(1.19519 0.845768 0)
(1.19581 0.864485 0)
(1.23736 0.859203 0)
(1.29497 0.85199 0)
(1.35132 0.853128 0)
(1.41349 0.854635 0)
(3 1.16884e-08 0)
(3 7.75189e-08 0)
(3 2.57133e-07 0)
(3 7.53378e-07 0)
(3 1.90376e-06 0)
(2.99999 4.94272e-06 0)
(2.99997 1.19111e-05 0)
(2.99993 3.01118e-05 0)
(2.99983 7.20765e-05 0)
(2.99958 0.00018025 0)
(2.99897 0.000434404 0)
(2.99749 0.00107614 0)
(2.99382 0.00262657 0)
(2.98482 0.0064868 0)
(2.96191 0.016153 0)
(2.90127 0.0414536 0)
(2.73215 0.111767 0)
(2.23953 0.324637 0)
(1.53136 0.771732 0)
(1.26137 0.86351 0)
(1.23721 0.882918 0)
(1.26129 0.882006 0)
(1.31563 0.868401 0)
(1.37491 0.860997 0)
(1.43419 0.857506 0)
(3 8.93105e-09 0)
(3 5.58513e-08 0)
(3 1.93745e-07 0)
(3 5.4305e-07 0)
(3 1.43098e-06 0)
(2.99999 3.56988e-06 0)
(2.99998 8.9193e-06 0)
(2.99995 2.18322e-05 0)
(2.99988 5.36394e-05 0)
(2.99971 0.000131519 0)
(2.99929 0.00032086 0)
(2.9983 0.000790051 0)
(2.9958 0.00192526 0)
(2.9898 0.00476579 0)
(2.97467 0.0117587 0)
(2.93592 0.0298353 0)
(2.83149 0.0788001 0)
(2.53009 0.222871 0)
(1.82954 0.620291 0)
(1.37995 0.854602 0)
(1.2946 0.887903 0)
(1.29746 0.89882 0)
(1.33927 0.887104 0)
(1.39689 0.871958 0)
(1.45398 0.863546 0)
(3 6.41005e-09 0)
(3 4.00523e-08 0)
(3 1.39702e-07 0)
(3 3.89187e-07 0)
(3 1.02764e-06 0)
(2.99999 2.57011e-06 0)
(2.99999 6.338e-06 0)
(2.99997 1.57143e-05 0)
(2.99992 3.78043e-05 0)
(2.9998 9.43638e-05 0)
(2.99952 0.000223789 0)
(2.99883 0.000564532 0)
(2.99713 0.00133015 0)
(2.99301 0.00336389 0)
(2.98275 0.00804831 0)
(2.95683 0.0203806 0)
(2.88804 0.0518982 0)
(2.69523 0.141108 0)
(2.15405 0.411395 0)
(1.54369 0.833941 0)
(1.35138 0.900827 0)
(1.33466 0.914127 0)
(1.35972 0.906606 0)
(1.41377 0.886403 0)
(1.47194 0.871805 0)
(3 4.65342e-09 0)
(3 2.78008e-08 0)
(3 9.98097e-08 0)
(3 2.69935e-07 0)
(3 7.33384e-07 0)
(3 1.77955e-06 0)
(2.99999 4.53271e-06 0)
(2.99998 1.08488e-05 0)
(2.99995 2.70296e-05 0)
(2.99987 6.51546e-05 0)
(2.99968 0.000159741 0)
(2.99922 0.000390464 0)
(2.99813 0.000945713 0)
(2.99539 0.00233971 0)
(2.98882 0.00566449 0)
(2.97231 0.0141559 0)
(2.92996 0.0355992 0)
(2.81575 0.0946111 0)
(2.48516 0.270018 0)
(1.81836 0.697049 0)
(1.4528 0.882507 0)
(1.38779 0.913271 0)
(1.39167 0.92027 0)
(1.43322 0.904033 0)
(1.48939 0.881603 0)
(3 3.14923e-09 0)
(3 1.93917e-08 0)
(3 6.72731e-08 0)
(3 1.8817e-07 0)
(3 4.95306e-07 0)
(3 1.22384e-06 0)
(2.99999 3.08761e-06 0)
(2.99999 7.34721e-06 0)
(2.99996 1.8508e-05 0)
(2.99991 4.34996e-05 0)
(2.99979 0.000109842 0)
(2.99948 0.000257026 0)
(2.99875 0.000649019 0)
(2.99694 0.0015264 0)
(2.99259 0.00383404 0)
(2.98173 0.00918106 0)
(2.95436 0.023138 0)
(2.88188 0.0589733 0)
(2.6785 0.160786 0)
(2.13224 0.459497 0)
(1.59454 0.847803 0)
(1.44207 0.915055 0)
(1.42672 0.930084 0)
(1.45027 0.922335 0)
(1.50144 0.897225 0)
(3 2.07954e-09 0)
(3 1.33185e-08 0)
(3 4.5141e-08 0)
(3 1.29246e-07 0)
(3 3.32407e-07 0)
(3 8.43047e-07 0)
(3 2.0621e-06 0)
(2.99999 5.08225e-06 0)
(2.99998 1.2333e-05 0)
(2.99994 3.00992e-05 0)
(2.99986 7.33026e-05 0)
(2.99967 0.000177622 0)
(2.99918 0.000434768 0)
(2.99805 0.00105062 0)
(2.9952 0.00258396 0)
(2.98836 0.00627901 0)
(2.97117 0.0155541 0)
(2.92706 0.0392351 0)
(2.80784 0.103795 0)
(2.46393 0.296084 0)
(1.84486 0.726984 0)
(1.5293 0.89861 0)
(1.47264 0.929726 0)
(1.4765 0.936214 0)
(1.51548 0.918253 0)
(3 1.38535e-09 0)
(3 8.91299e-09 0)
(3 3.02743e-08 0)
(3 8.62984e-08 0)
(3 2.22443e-07 0)
(3 5.63567e-07 0)
(3 1.37291e-06 0)
(2.99999 3.4081e-06 0)
(2.99998 8.16369e-06 0)
(2.99996 2.02023e-05 0)
(2.99991 4.8226e-05 0)
(2.99979 0.000119302 0)
(2.99948 0.000284612 0)
(2.99874 0.000703102 0)
(2.99694 0.00168683 0)
(2.99253 0.00415833 0)
(2.98175 0.0101197 0)
(2.95443 0.0252046 0)
(2.88252 0.0648299 0)
(2.68103 0.176629 0)
(2.15645 0.497095 0)
(1.66823 0.862168 0)
(1.52695 0.93099 0)
(1.5094 0.945908 0)
(1.52866 0.938183 0)
(3 9.13895e-10 0)
(3 5.95871e-09 0)
(3 1.98667e-08 0)
(3 5.77002e-08 0)
(3 1.45992e-07 0)
(3 3.74608e-07 0)
(3 9.0553e-07 0)
(3 2.2452e-06 0)
(2.99999 5.41083e-06 0)
(2.99998 1.32313e-05 0)
(2.99994 3.20391e-05 0)
(2.99987 7.7613e-05 0)
(2.99967 0.000189319 0)
(2.99922 0.000455902 0)
(2.99808 0.00111816 0)
(2.99539 0.00268876 0)
(2.98868 0.00663288 0)
(2.9723 0.0161816 0)
(2.93004 0.0409551 0)
(2.81693 0.107593 0)
(2.49251 0.306466 0)
(1.91569 0.729551 0)
(1.61413 0.908705 0)
(1.55433 0.942596 0)
(1.55358 0.94965 0)
(3 6.06755e-10 0)
(3 3.77456e-09 0)
(3 1.31703e-08 0)
(3 3.65648e-08 0)
(3 9.64756e-08 0)
(3 2.39252e-07 0)
(3 5.91204e-07 0)
(3 1.44505e-06 0)
(2.99999 3.48447e-06 0)
(2.99999 8.57909e-06 0)
(2.99996 2.03864e-05 0)
(2.99992 5.06108e-05 0)
(2.9998 0.000119391 0)
(2.99951 0.000297581 0)
(2.9988 0.000701314 0)
(2.99712 0.00174791 0)
(2.99299 0.00415378 0)
(2.98291 0.0103425 0)
(2.95751 0.0252764 0)
(2.89125 0.065074 0)
(2.70622 0.176108 0)
(2.22678 0.488523 0)
(1.7566 0.864582 0)
(1.60848 0.940268 0)
(1.58594 0.956038 0)
(3 3.85867e-10 0)
(3 2.43597e-09 0)
(3 8.3925e-09 0)
(3 2.35625e-08 0)
(3 6.1425e-08 0)
(3 1.53629e-07 0)
(3 3.76191e-07 0)
(3 9.24272e-07 0)
(3 2.21917e-06 0)
(2.99999 5.4512e-06 0)
(2.99998 1.30053e-05 0)
(2.99995 3.19725e-05 0)
(2.99988 7.61844e-05 0)
(2.9997 0.000186962 0)
(2.99929 0.000446802 0)
(2.99826 0.0010946 0)
(2.99584 0.00262805 0)
(2.98986 0.00644879 0)
(2.97533 0.0157024 0)
(2.9383 0.0394965 0)
(2.84057 0.103062 0)
(2.56229 0.290893 0)
(2.01786 0.700186 0)
(1.70316 0.90379 0)
(1.63402 0.946391 0)
(3 2.43738e-10 0)
(3 1.53547e-09 0)
(3 5.22994e-09 0)
(3 1.48472e-08 0)
(3 3.81756e-08 0)
(3 9.59794e-08 0)
(3 2.34814e-07 0)
(3 5.71095e-07 0)
(3 1.39285e-06 0)
(2.99999 3.32725e-06 0)
(2.99999 8.18066e-06 0)
(2.99997 1.93075e-05 0)
(2.99992 4.77815e-05 0)
(2.99982 0.000112208 0)
(2.99956 0.000278003 0)
(2.99894 0.000653136 0)
(2.99745 0.00161505 0)
(2.99379 0.0038246 0)
(2.98495 0.00944011 0)
(2.96278 0.0228818 0)
(2.90548 0.0581836 0)
(2.74831 0.154675 0)
(2.32855 0.427108 0)
(1.85711 0.825555 0)
(1.68925 0.929894 0)
(3 1.46276e-10 0)
(3 9.66066e-10 0)
(3 3.2114e-09 0)
(3 9.31799e-09 0)
(3 2.35051e-08 0)
(3 6.0313e-08 0)
(3 1.43977e-07 0)
(3 3.60211e-07 0)
(3 8.49145e-07 0)
(3 2.10579e-06 0)
(2.99999 4.97296e-06 0)
(2.99998 1.22283e-05 0)
(2.99995 2.91044e-05 0)
(2.99989 7.08759e-05 0)
(2.99974 0.000170434 0)
(2.99938 0.000410538 0)
(2.99848 0.000999259 0)
(2.99637 0.0023893 0)
(2.99118 0.00587716 0)
(2.9786 0.0141712 0)
(2.94678 0.0355473 0)
(2.86362 0.0913659 0)
(2.62802 0.253456 0)
(2.12765 0.638969 0)
(1.79297 0.890114 0)
(3 9.35198e-11 0)
(3 5.73474e-10 0)
(3 2.01538e-09 0)
(3 5.53852e-09 0)
(3 1.46958e-08 0)
(3 3.60069e-08 0)
(3 8.94917e-08 0)
(3 2.15465e-07 0)
(3 5.23409e-07 0)
(3 1.26535e-06 0)
(3 3.03039e-06 0)
(2.99999 7.3893e-06 0)
(2.99997 1.75203e-05 0)
(2.99994 4.30271e-05 0)
(2.99984 0.000101399 0)
(2.99963 0.000249725 0)
(2.9991 0.000588602 0)
(2.99786 0.00144794 0)
(2.99476 0.00343178 0)
(2.98741 0.00844302 0)
(2.969 0.0203956 0)
(2.92222 0.0514924 0)
(2.79588 0.135021 0)
(2.45018 0.375564 0)
(1.98136 0.776607 0)
(3 5.68985e-11 0)
(3 3.50246e-10 0)
(3 1.22183e-09 0)
(3 3.38043e-09 0)
(3 8.9104e-09 0)
(3 2.18789e-08 0)
(3 5.44025e-08 0)
(3 1.30463e-07 0)
(3 3.1888e-07 0)
(3 7.63948e-07 0)
(3 1.85117e-06 0)
(2.99999 4.45181e-06 0)
(2.99998 1.07118e-05 0)
(2.99996 2.59261e-05 0)
(2.99991 6.19568e-05 0)
(2.99978 0.000150969 0)
(2.99948 0.000358443 0)
(2.99874 0.000879268 0)
(2.99701 0.00208511 0)
(2.99271 0.00512894 0)
(2.98242 0.0123421 0)
(2.95654 0.0306312 0)
(2.88968 0.0779661 0)
(2.7033 0.211993 0)
(2.26688 0.553122 0)
(3 3.30182e-11 0)
(3 2.13771e-10 0)
(3 7.18966e-10 0)
(3 2.0605e-09 0)
(3 5.24471e-09 0)
(3 1.32928e-08 0)
(3 3.19621e-08 0)
(3 7.89163e-08 0)
(3 1.87446e-07 0)
(3 4.58989e-07 0)
(3 1.08917e-06 0)
(3 2.65403e-06 0)
(2.99999 6.31842e-06 0)
(2.99998 1.53058e-05 0)
(2.99995 3.66459e-05 0)
(2.99988 8.81346e-05 0)
(2.9997 0.00021272 0)
(2.99929 0.000507305 0)
(2.9983 0.00123505 0)
(2.99595 0.00293741 0)
(2.9902 0.00718944 0)
(2.97632 0.017347 0)
(2.94141 0.0433076 0)
(2.84982 0.112244 0)
(2.59574 0.310836 0)
(3 2.02333e-11 0)
(3 1.23987e-10 0)
(3 4.3232e-10 0)
(3 1.19555e-09 0)
(3 3.13865e-09 0)
(3 7.69597e-09 0)
(3 1.91367e-08 0)
(3 4.54648e-08 0)
(3 1.11959e-07 0)
(3 2.63272e-07 0)
(3 6.46716e-07 0)
(3 1.52079e-06 0)
(2.99999 3.71776e-06 0)
(2.99999 8.77044e-06 0)
(2.99997 2.1307e-05 0)
(2.99993 5.06339e-05 0)
(2.99983 0.000121856 0)
(2.99959 0.000291792 0)
(2.99903 0.000696781 0)
(2.99767 0.00168266 0)
(2.99441 0.0039986 0)
(2.98648 0.00973292 0)
(2.967 0.0234776 0)
(2.91729 0.0588912 0)
(2.78309 0.15485 0)
(3 1.15255e-11 0)
(3 7.35268e-11 0)
(3 2.48566e-10 0)
(3 7.08438e-10 0)
(3 1.80798e-09 0)
(3 4.54882e-09 0)
(3 1.10148e-08 0)
(3 2.68295e-08 0)
(3 6.44722e-08 0)
(3 1.54947e-07 0)
(3 3.73133e-07 0)
(3 8.90217e-07 0)
(3 2.15392e-06 0)
(2.99999 5.10889e-06 0)
(2.99998 1.24009e-05 0)
(2.99996 2.93749e-05 0)
(2.9999 7.12344e-05 0)
(2.99977 0.000169192 0)
(2.99946 0.000408864 0)
(2.9987 0.000976114 0)
(2.9969 0.00235301 0)
(2.99253 0.0056618 0)
(2.98199 0.0137327 0)
(2.95576 0.0337211 0)
(2.88816 0.0857932 0)
(3 6.63826e-12 0)
(3 4.1941e-11 0)
(3 1.44042e-10 0)
(3 4.03941e-10 0)
(3 1.04529e-09 0)
(3 2.60244e-09 0)
(3 6.31674e-09 0)
(3 1.54026e-08 0)
(3 3.6599e-08 0)
(3 8.93561e-08 0)
(3 2.10058e-07 0)
(3 5.13868e-07 0)
(3 1.20547e-06 0)
(3 2.94424e-06 0)
(2.99999 6.92249e-06 0)
(2.99998 1.68152e-05 0)
(2.99995 3.98118e-05 0)
(2.99987 9.59215e-05 0)
(2.9997 0.000228979 0)
(2.99929 0.000547151 0)
(2.99831 0.00131783 0)
(2.99595 0.00313469 0)
(2.99031 0.00761604 0)
(2.97659 0.0183084 0)
(2.94247 0.0455161 0)
(3 3.7875e-12 0)
(3 2.40188e-11 0)
(3 8.16797e-11 0)
(3 2.31179e-10 0)
(3 5.91967e-10 0)
(3 1.48003e-09 0)
(3 3.59443e-09 0)
(3 8.67769e-09 0)
(3 2.09079e-08 0)
(3 4.98167e-08 0)
(3 1.20278e-07 0)
(3 2.84275e-07 0)
(3 6.89288e-07 0)
(3 1.6209e-06 0)
(2.99999 3.93813e-06 0)
(2.99999 9.24751e-06 0)
(2.99997 2.24275e-05 0)
(2.99993 5.2805e-05 0)
(2.99983 0.00012746 0)
(2.99961 0.000301277 0)
(2.99905 0.000724059 0)
(2.99777 0.0017215 0)
(2.99461 0.00412016 0)
(2.98715 0.00989934 0)
(2.96863 0.0239176 0)
(3 2.16985e-12 0)
(3 1.34662e-11 0)
(3 4.66023e-11 0)
(3 1.29263e-10 0)
(3 3.37248e-10 0)
(3 8.27562e-10 0)
(3 2.04116e-09 0)
(3 4.85792e-09 0)
(3 1.18249e-08 0)
(3 2.7921e-08 0)
(3 6.76455e-08 0)
(3 1.59894e-07 0)
(3 3.85411e-07 0)
(3 9.14143e-07 0)
(3 2.19287e-06 0)
(2.99999 5.22605e-06 0)
(2.99998 1.24535e-05 0)
(2.99996 2.98919e-05 0)
(2.99991 7.07249e-05 0)
(2.99978 0.000170714 0)
(2.99949 0.000402268 0)
(2.99878 0.000975069 0)
(2.99712 0.0022978 0)
(2.99305 0.00558608 0)
(2.98338 0.0133216 0)
(3 1.16831e-12 0)
(3 7.54445e-12 0)
(3 2.51767e-11 0)
(3 7.25312e-11 0)
(3 1.82329e-10 0)
(3 4.63168e-10 0)
(3 1.09921e-09 0)
(3 2.71262e-09 0)
(3 6.36181e-09 0)
(3 1.55129e-08 0)
(3 3.64339e-08 0)
(3 8.80872e-08 0)
(3 2.08254e-07 0)
(3 4.98499e-07 0)
(3 1.18893e-06 0)
(3 2.81893e-06 0)
(2.99999 6.78887e-06 0)
(2.99998 1.59321e-05 0)
(2.99995 3.86792e-05 0)
(2.99988 9.02609e-05 0)
(2.99972 0.000220054 0)
(2.99935 0.000512383 0)
(2.99845 0.00125048 0)
(2.99632 0.00292738 0)
(2.99121 0.00713314 0)
(3 6.43383e-13 0)
(3 3.90669e-12 0)
(3 1.39008e-11 0)
(3 3.76638e-11 0)
(3 1.00061e-10 0)
(3 2.41475e-10 0)
(3 5.99603e-10 0)
(3 1.412e-09 0)
(3 3.43491e-09 0)
(3 8.08637e-09 0)
(3 1.93935e-08 0)
(3 4.59808e-08 0)
(3 1.09112e-07 0)
(3 2.60921e-07 0)
(3 6.11621e-07 0)
(3 1.47787e-06 0)
(3 3.43106e-06 0)
(2.99999 8.3379e-06 0)
(2.99997 1.92662e-05 0)
(2.99994 4.67973e-05 0)
(2.99985 0.000108426 0)
(2.99964 0.000261674 0)
(2.99913 0.00060928 0)
(2.99795 0.00146219 0)
(2.99509 0.00343272 0)
(3 3.2802e-13 0)
(3 2.0512e-12 0)
(3 7.03418e-12 0)
(3 1.9635e-11 0)
(3 5.08585e-11 0)
(3 1.24659e-10 0)
(3 3.04582e-10 0)
(3 7.19549e-10 0)
(3 1.73704e-09 0)
(3 4.05756e-09 0)
(3 9.74453e-09 0)
(3 2.27043e-08 0)
(3 5.43048e-08 0)
(3 1.26779e-07 0)
(3 3.00934e-07 0)
(3 7.05131e-07 0)
(3 1.66114e-06 0)
(2.99999 3.91161e-06 0)
(2.99998 9.11938e-06 0)
(2.99996 2.15746e-05 0)
(2.9999 4.99054e-05 0)
(2.99977 0.00011815 0)
(2.99945 0.000272323 0)
(2.99868 0.000641692 0)
(2.99684 0.0014805 0)
(3 1.59296e-13 0)
(3 1.01971e-12 0)
(3 3.34901e-12 0)
(3 9.91768e-12 0)
(3 2.45239e-11 0)
(3 6.19938e-11 0)
(3 1.45266e-10 0)
(3 3.54582e-10 0)
(3 8.1611e-10 0)
(3 1.9702e-09 0)
(3 4.512e-09 0)
(3 1.07888e-08 0)
(3 2.47856e-08 0)
(3 5.85281e-08 0)
(3 1.35482e-07 0)
(3 3.14515e-07 0)
(3 7.35887e-07 0)
(2.99999 1.67759e-06 0)
(2.99999 3.95428e-06 0)
(2.99997 8.87617e-06 0)
(2.99993 2.09637e-05 0)
(2.99982 4.64905e-05 0)
(2.99957 0.000109502 0)
(2.99895 0.000239864 0)
(2.99745 0.000562107 0)
(3 7.93625e-14 0)
(3 4.73496e-13 0)
(3 1.73723e-12 0)
(3 4.48941e-12 0)
(3 1.21503e-11 0)
(3 2.78674e-11 0)
(3 7.04934e-11 0)
(3 1.57938e-10 0)
(3 3.86163e-10 0)
(3 8.73637e-10 0)
(3 2.06405e-09 0)
(3 4.78311e-09 0)
(3 1.08851e-08 0)
(3 2.60001e-08 0)
(3 5.65642e-08 0)
(3 1.40233e-07 0)
(3 2.91931e-07 0)
(3 7.40936e-07 0)
(2.99999 1.49862e-06 0)
(2.99997 3.83672e-06 0)
(2.99994 7.63441e-06 0)
(2.99984 1.92854e-05 0)
(2.99961 3.8376e-05 0)
(2.99905 9.44338e-05 0)
(2.99765 0.000188604 0)
(3 3.96952e-14 0)
(3 2.33156e-13 0)
(3 7.86884e-13 0)
(3 2.03818e-12 0)
(3 5.31575e-12 0)
(3 1.25619e-11 0)
(3 3.04848e-11 0)
(3 6.93547e-11 0)
(3 1.66524e-10 0)
(3 3.69267e-10 0)
(3 8.85992e-10 0)
(3 1.95156e-09 0)
(3 4.60932e-09 0)
(3 1.02579e-08 0)
(3 2.35905e-08 0)
(3 5.35059e-08 0)
(3 1.18048e-07 0)
(3 2.75772e-07 0)
(2.99999 5.8176e-07 0)
(2.99997 1.39234e-06 0)
(2.99994 2.78078e-06 0)
(2.99985 6.93328e-06 0)
(2.99963 1.28427e-05 0)
(2.99908 3.36372e-05 0)
(2.99774 5.68526e-05 0)
(3 9.43785e-15 0)
(3 7.50869e-14 0)
(3 2.67702e-13 0)
(3 7.72131e-13 0)
(3 2.1193e-12 0)
(3 4.97418e-12 0)
(3 1.20078e-11 0)
(3 2.75578e-11 0)
(3 6.56994e-11 0)
(3 1.42095e-10 0)
(3 3.51128e-10 0)
(3 7.21303e-10 0)
(3 1.81988e-09 0)
(3 3.58676e-09 0)
(3 9.41077e-09 0)
(3 1.77002e-08 0)
(3 4.59861e-08 0)
(3 8.95255e-08 0)
(2.99999 2.16478e-07 0)
(2.99998 4.48865e-07 0)
(2.99994 9.56206e-07 0)
(2.99985 2.27376e-06 0)
(2.99963 3.92128e-06 0)
(2.99909 1.11983e-05 0)
(2.99775 1.46544e-05 0)
(3 9.95693e-16 0)
(3 4.49265e-15 0)
(3 8.45306e-14 0)
(3 1.39568e-13 0)
(3 6.55591e-13 0)
(3 1.11144e-12 0)
(3 3.75872e-12 0)
(3 5.91119e-12 0)
(3 2.13202e-11 0)
(3 2.78472e-11 0)
(3 1.18794e-10 0)
(3 1.23905e-10 0)
(3 6.35717e-10 0)
(3 5.66266e-10 0)
(3 3.23393e-09 0)
(3 2.99889e-09 0)
(3 1.47175e-08 0)
(3 1.82665e-08 0)
(2.99999 5.95576e-08 0)
(2.99998 1.2676e-07 0)
(2.99994 1.88098e-07 0)
(2.99985 8.00381e-07 0)
(2.99964 3.8677e-07 0)
(2.99909 4.90279e-06 0)
(2.99777 -1.23677e-06 0)
(1.27786 1.08117 0)
(1.68918 0.881272 0)
(1.87294 0.617563 0)
(1.90036 0.354504 0)
(1.85086 0.135372 0)
(1.75655 -0.00872832 0)
(1.65927 -0.0453385 0)
(1.60727 -0.0141065 0)
(1.59579 0.0290748 0)
(1.59624 0.0499436 0)
(1.59372 0.04887 0)
(1.58215 0.0401221 0)
(1.5501 0.031855 0)
(1.4753 0.0293238 0)
(1.31041 0.0399942 0)
(0.965971 0.0763902 0)
(0.52206 0.150904 0)
(0.175437 0.165357 0)
(0.00159915 0.135574 0)
(-0.195575 0.0994483 0)
(-0.362564 0.0625764 0)
(-0.508285 0.0283964 0)
(-0.631246 0.00687691 0)
(-0.716293 -0.00223752 0)
(-0.771652 0.00298149 0)
(-0.813612 0.0108353 0)
(-0.852381 0.0160485 0)
(-0.887208 0.0183833 0)
(-0.910785 0.0154981 0)
(-0.923253 0.00934357 0)
(-0.927386 0.00251245 0)
(-0.91665 -0.00242443 0)
(-0.881887 -0.00715732 0)
(-0.820112 -0.0136751 0)
(-0.738538 -0.0206936 0)
(-0.646793 -0.0262674 0)
(-0.551065 -0.030955 0)
(-0.45633 -0.0346216 0)
(-0.36234 -0.0387986 0)
(-0.273382 -0.0407094 0)
(-0.189403 -0.0412049 0)
(-0.109124 -0.0425372 0)
(-0.0369576 -0.0480602 0)
(0.0491043 -0.0408854 0)
(0.113045 -0.0354095 0)
(0.177781 -0.0335246 0)
(0.237128 -0.0316501 0)
(0.292519 -0.0297833 0)
(0.343268 -0.0277056 0)
(0.391783 -0.0263505 0)
(0.44177 -0.0261832 0)
(0.491121 -0.0253222 0)
(0.537699 -0.0240537 0)
(0.581781 -0.0227028 0)
(0.624037 -0.0215604 0)
(0.664649 -0.0205001 0)
(0.703853 -0.0195413 0)
(0.741677 -0.0185794 0)
(0.778288 -0.0176673 0)
(0.813727 -0.0167676 0)
(0.848112 -0.0159203 0)
(0.881478 -0.0150977 0)
(0.913912 -0.014325 0)
(0.945443 -0.0135803 0)
(0.976138 -0.0128826 0)
(1.00602 -0.0122134 0)
(1.03513 -0.0115859 0)
(1.0635 -0.0109838 0)
(1.09116 -0.0104176 0)
(1.11814 -0.00987216 0)
(1.14448 -0.00935541 0)
(1.17019 -0.00885428 0)
(1.19532 -0.00837501 0)
(1.21988 -0.00790627 0)
(1.2439 -0.00745396 0)
(1.26742 -0.00700782 0)
(1.29044 -0.00657517 0)
(1.31299 -0.00614675 0)
(1.33509 -0.00573143 0)
(1.35674 -0.0053215 0)
(1.37797 -0.0049258 0)
(1.39877 -0.00453728 0)
(1.41917 -0.00416337 0)
(1.43918 -0.00379629 0)
(1.4588 -0.00344287 0)
(1.47805 -0.00309665 0)
(1.49694 -0.00276092 0)
(1.51549 -0.00243159 0)
(1.5337 -0.00210947 0)
(1.55157 -0.00179156 0)
(1.56911 -0.00149553 0)
(1.58631 -0.00122389 0)
(1.60313 -0.000992479 0)
(1.61951 -0.000748387 0)
(1.6354 -0.000479412 0)
(1.65062 -0.000181483 0)
(1.66482 0.00016225 0)
(1.67747 0.000581064 0)
(1.68731 0.00113988 0)
(1.69415 0.0018431 0)
(1.37171 0.992553 0)
(1.68487 0.71003 0)
(1.85847 0.397624 0)
(1.94289 0.130244 0)
(1.99305 -0.0608799 0)
(2.02233 -0.161748 0)
(2.03069 -0.167802 0)
(2.02838 -0.126977 0)
(2.01262 -0.0763781 0)
(1.9856 -0.0353291 0)
(1.96307 -0.0105852 0)
(1.94757 -0.000712437 0)
(1.9258 0.00291062 0)
(1.87997 0.0124659 0)
(1.77428 0.0385688 0)
(1.52774 0.102078 0)
(1.11935 0.227423 0)
(0.788852 0.25856 0)
(0.615046 0.236852 0)
(0.477993 0.222305 0)