/*--------------------------------*- C++ -*----------------------------------*\
  =========                 |
  \\      /  F ield         | OpenFOAM: The Open Source CFD Toolbox
   \\    /   O peration     | Website:  https://openfoam.org
    \\  /    A nd           | Version:  13
     \\/     M anipulation  |
\*---------------------------------------------------------------------------*/
FoamFile
{
    format      ascii;
    class       volScalarField;
    location    "2.5";
    object      p;
}
// * * * * * * * * * * * * * * * * * * * * * * * * * * * * * * * * * * * * * //

dimensions      [1 -1 -2 0 0 0 0];

internalField   nonuniform List<scalar> 
5250
(
1.00001
1.00002
1.00008
1.00018
1.0005
1.00113
1.00307
1.00696
1.01855
1.0436
1.11296
1.28572
1.77534
3.20591
7.48168
11.9621
11.3581
11.0508
11.147
11.3965
11.6271
11.7662
11.8764
11.9647
12.031
1
1.00002
1.00007
1.00018
1.00049
1.00112
1.00297
1.00697
1.01787
1.04346
1.11006
1.28132
1.75913
3.16192
7.35922
11.9764
11.3594
11.0411
11.1372
11.3868
11.6186
11.7595
11.8721
11.9629
12.0317
1
1.00002
1.00007
1.00017
1.00047
1.00107
1.0029
1.00659
1.01753
1.04123
1.10668
1.26924
1.72802
3.06544
7.08508
12.0018
11.3591
11.0113
11.1038
11.3499
11.5833
11.7251
11.8385
11.9299
11.9995
1
1.00002
1.00007
1.00017
1.00043
1.00104
1.00268
1.00632
1.01644
1.03903
1.10055
1.2531
1.68213
2.9252
6.67326
12.0316
11.3623
10.9649
11.0488
11.2852
11.5202
11.6612
11.773
11.8638
11.9355
1
1.00002
1.00006
1.00015
1.00041
1.00095
1.00254
1.00579
1.01548
1.03592
1.09362
1.23306
1.62596
2.75369
6.14579
12.0191
11.3577
10.9037
10.9757
11.1958
11.4296
11.5672
11.6749
11.7638
11.8391
1
1.00002
1.00006
1.00014
1.00038
1.00088
1.00236
1.00535
1.01431
1.03312
1.08626
1.21365
1.57026
2.58539
5.62207
11.8908
11.3044
10.8213
10.8814
11.0774
11.303
11.4336
11.5333
11.6163
11.6938
1
1.00002
1.00005
1.00014
1.00033
1.00087
1.00204
1.00525
1.01264
1.03159
1.07828
1.19845
1.52183
2.44934
5.22118
11.5156
11.1497
10.73
10.7723
10.9269
11.1337
11.251
11.3344
11.4023
11.4765
1
1.00002
1.00005
1.00013
1.00032
1.00078
1.00195
1.00468
1.01193
1.02854
1.07271
1.18107
1.47745
2.31757
4.82169
10.9358
10.8965
10.6642
10.6597
10.7448
10.9197
11.0145
11.0662
11.0977
11.1456
1
1.00001
1.00005
1.00011
1.0003
1.00068
1.00183
1.00414
1.01108
1.02556
1.06676
1.16333
1.4319
2.18254
4.41293
10.1895
10.7288
10.5819
10.5037
10.5512
10.6651
10.7187
10.7136
10.6692
10.6187
1
1.00001
1.00004
1.0001
1.00025
1.00065
1.00152
1.00402
1.00922
1.0243
1.05746
1.14871
1.38031
2.04602
3.9902
9.28287
10.6107
10.4846
10.3204
10.3335
10.3755
10.3616
10.2749
10.057
9.71101
1
1.00001
1.00004
1.00009
1.00023
1.00054
1.00141
1.00333
1.00844
1.02062
1.05126
1.12855
1.3312
1.89892
3.55445
8.21298
10.5205
10.3903
10.1335
10.0896
10.0632
9.96835
9.70933
9.10407
7.53263
1
1.00001
1.00003
1.00008
1.00018
1.0005
1.00112
1.00302
1.00684
1.01822
1.04258
1.11024
1.27734
1.74847
3.10443
7.00146
10.4514
10.297
9.96472
9.84143
9.75227
9.55658
9.13759
8.2981
6.63579
1
1.00001
1.00002
1.00007
1.00015
1.00041
1.00093
1.0025
1.00564
1.01502
1.03495
1.09032
1.22453
1.59749
2.65163
5.6814
10.2983
10.1697
9.82886
9.60293
9.44591
9.16617
8.64409
7.77435
6.41768
1
1.00001
1.00002
1.00005
1.00013
1.00033
1.00076
1.00202
1.0046
1.01222
1.02819
1.07326
1.17909
1.47204
2.28195
4.60138
9.82438
9.91315
9.70146
9.37921
9.14924
8.82247
8.28334
7.47803
6.39308
1
1.00001
1.00002
1.00004
1.00011
1.00025
1.00067
1.00154
1.00401
1.00949
1.0239
1.05855
1.14733
1.37993
2.02999
3.90243
8.71925
9.63025
9.49101
9.17906
8.88539
8.53387
8.01697
7.29718
6.39263
1
1
1.00001
1.00003
1.00009
1.0002
1.00054
1.00122
1.00329
1.00744
1.01973
1.0462
1.11923
1.30044
1.81015
3.26209
7.22681
9.38649
9.29505
9.02796
8.66926
8.29644
7.80969
7.16724
6.39024
1
1
1.00001
1.00003
1.00007
1.00016
1.00041
1.00101
1.00243
1.00616
1.01462
1.03728
1.09038
1.23223
1.60773
2.67628
5.64789
9.16284
9.13799
8.93072
8.50928
8.10509
7.64254
7.06528
6.38461
1
1
1.00001
1.00002
1.00005
1.00013
1.0003
1.00079
1.0018
1.00475
1.0108
1.02846
1.0666
1.17211
1.43714
2.17952
4.20761
8.62332
8.98197
8.80791
8.40508
7.95738
7.50667
6.98159
6.37583
1
1
1.00001
1.00002
1.00004
1.0001
1.00023
1.00061
1.00136
1.00362
1.00825
1.02155
1.05086
1.13002
1.32838
1.88068
3.42577
7.37921
8.71436
8.60872
8.30551
7.84157
7.39564
6.91072
6.36583
1
1
1
1.00001
1.00003
1.00007
1.00018
1.00044
1.00104
1.00265
1.00619
1.01604
1.03768
1.09659
1.24
1.6366
2.73253
5.70457
8.4406
8.41642
8.21779
7.78418
7.31408
6.85112
6.35504
1
1
1
1.00001
1.00002
1.00005
1.00013
1.0003
1.00079
1.00178
1.00473
1.01068
1.02814
1.06555
1.16889
1.42623
2.13284
3.9982
7.87557
8.28432
8.13399
7.76034
7.26093
6.80535
6.34598
1
1
1
1.00001
1.00001
1.00004
1.00009
1.00023
1.00053
1.00138
1.00322
1.00809
1.01959
1.04825
1.11985
1.30376
1.80248
3.16926
6.60962
8.04167
7.96815
7.71697
7.23542
6.77735
6.34148
1
1
1
1
1.00001
1.00003
1.00007
1.00016
1.0004
1.00091
1.0024
1.00544
1.01434
1.03301
1.08526
1.20844
1.54735
2.45739
4.86506
7.65477
7.77367
7.62633
7.2498
6.77902
6.34413
1
1
1
1
1.00001
1.00002
1.00005
1.00011
1.00028
1.00063
1.00165
1.00371
1.00979
1.02233
1.05782
1.13825
1.35718
1.92691
3.43275
6.8137
7.60813
7.51629
7.2442
6.79541
6.35535
1
1
1
1
1
1.00001
1.00003
1.00007
1.00018
1.00043
1.00112
1.00254
1.00666
1.01515
1.03953
1.09304
1.23999
1.61409
2.6351
5.22402
7.3044
7.33525
7.2058
6.85875
6.3851
1
1
1
1
1
1.00001
1.00002
1.00005
1.00012
1.0003
1.00069
1.0018
1.00405
1.01062
1.02418
1.06241
1.1488
1.38288
1.98048
3.49837
6.65367
7.21613
7.13274
6.88794
6.44476
1
1
1
1
1
1.00001
1.00001
1.00003
1.00008
1.00019
1.00049
1.00111
1.00285
1.00666
1.01661
1.04017
1.09908
1.24804
1.63891
2.67599
5.25843
6.958
6.98162
6.86687
6.56636
1
1
1
1
1
1
1.00001
1.00002
1.00005
1.00012
1.00031
1.00071
1.00183
1.00414
1.01077
1.02452
1.0632
1.14984
1.3846
1.97285
3.43197
6.37443
6.87331
6.81007
6.60801
1
1
1
1
1
1
1.00001
1.00001
1.00003
1.00008
1.00019
1.00048
1.0011
1.00285
1.00645
1.01684
1.03861
1.09896
1.24056
1.62383
2.60979
5.05552
6.6141
6.68433
6.58578
1
1
1
1
1
1
1
1.00001
1.00002
1.00005
1.00012
1.0003
1.00068
1.00177
1.00398
1.01039
1.02353
1.06049
1.143
1.36487
1.91533
3.26381
6.00505
6.5592
6.51841
1
1
1
1
1
1
1
1.00001
1.00001
1.00003
1.00008
1.00018
1.00045
1.00107
1.00257
1.00636
1.01491
1.03762
1.08923
1.22582
1.56775
2.46172
4.64463
6.251
6.39482
1
1
1
1
1
1
1
1
1.00001
1.00002
1.00004
1.00012
1.00026
1.00067
1.00151
1.00389
1.00895
1.02241
1.05326
1.13172
1.32579
1.81906
3.01558
5.53762
6.23623
1
1
1
1
1
1
1
1
1
1.00001
1.00003
1.00007
1.00016
1.0004
1.00092
1.00236
1.00534
1.01382
1.03148
1.08048
1.19207
1.4908
2.23186
4.03974
5.84133
1
1
1
1
1
1
1
1
1
1.00001
1.00002
1.00004
1.0001
1.00022
1.00058
1.0013
1.00336
1.00764
1.01937
1.0453
1.11269
1.27573
1.69107
2.70313
4.9488
1
1
1
1
1
1
1
1
1
1
1.00001
1.00002
1.00006
1.00014
1.00033
1.00077
1.00193
1.00439
1.01126
1.02554
1.0651
1.15308
1.38649
1.94707
3.27885
1
1
1
1
1
1
1
1
1
1
1.00001
1.00001
1.00003
1.00008
1.00018
1.00047
1.00106
1.0027
1.00618
1.01541
1.03647
1.08923
1.21845
1.543
2.34436
1
1
1
1
1
1
1
1
1
1
1
1.00001
1.00002
1.00004
1.00011
1.00025
1.00063
1.00147
1.00353
1.0086
1.02019
1.04987
1.11841
1.29355
1.71567
1
1
1
1
1
1
1
1
1
1
1
1
1.00001
1.00003
1.00006
1.00015
1.00035
1.00082
1.00203
1.00465
1.0118
1.0268
1.06781
1.15935
1.39924
1
1
1
1
1
1
1
1
1
1
1
1
1.00001
1.00001
1.00003
1.00008
1.00019
1.00046
1.00113
1.00259
1.00656
1.01474
1.03781
1.08662
1.21877
1
1
1
1
1
1
1
1
1
1
1
1
1
1.00001
1.00002
1.00004
1.00011
1.00025
1.0006
1.00145
1.00339
1.00842
1.01926
1.04822
1.11236
1
1
1
1
1
1
1
1
1
1
1
1
1
1
1.00001
1.00002
1.00006
1.00014
1.00032
1.0008
1.0018
1.00457
1.01021
1.0261
1.05914
1
1
1
1
1
1
1
1
1
1
1
1
1
1
1.00001
1.00001
1.00003
1.00007
1.00018
1.00041
1.00103
1.0023
1.00589
1.01311
1.03351
1
1
1
1
1
1
1
1
1
1
1
1
1
1
1
1.00001
1.00002
1.00004
1.00009
1.00023
1.00052
1.00126
1.00302
1.00703
1.01732
1
1
1
1
1
1
1
1
1
1
1
1
1
1
1
1
1.00001
1.00002
1.00005
1.00012
1.00026
1.00067
1.0015
1.00378
1.00854
1
1
1
1
1
1
1
1
1
1
1
1
1
1
1
1
1
1.00001
1.00002
1.00006
1.00014
1.00035
1.00077
1.00197
1.00438
1
1
1
1
1
1
1
1
1
1
1
1
1
1
1
1
1
1.00001
1.00001
1.00003
1.00007
1.00018
1.00041
1.00101
1.00226
1
1
1
1
1
1
1
1
1
1
1
1
1
1
1
1
1
1
1.00001
1.00002
1.00004
1.00009
1.00022
1.0005
1.00123
1
1
1
1
1
1
1
1
1
1
1
1
1
1
1
1
1
1
1
1.00001
1.00002
1.00005
1.00011
1.00028
1.00062
1
1
1
1
1
1
1
1
1
1
1
1
1
1
1
1
1
1
1
1.00001
1.00001
1.00003
1.00007
1.00017
1.00039
1
1
1
1
1
1
1
1
1
1
1
1
1
1
1
1
1
1
1
1
1.00001
1.00002
1.00005
1.00014
1.00031
2.99088
1.50249
1.01233
0.91957
0.947448
1.03318
1.2131
1.35192
1.39305
1.39116
1.38516
1.38213
1.38328
1.38706
1.39513
1.40332
1.40675
1.40664
1.4061
1.40482
1.40248
1.40051
1.39894
1.39721
1.39502
1.39241
1.3898
1.38836
1.38869
1.3902
1.395
1.40778
1.43922
1.51369
1.68732
2.09339
3.01496
3.87036
3.84729
3.88092
3.93322
4.01846
4.14274
4.27874
4.39228
4.49268
4.56735
4.61667
4.64602
4.66077
4.66346
4.66066
4.65146
4.63175
4.6037
4.57313
4.5397
4.50326
4.46303
4.41962
4.37297
4.324
4.27287
4.2203
4.16636
4.11155
4.05585
3.99965
3.94288
3.88586
3.82856
3.77128
3.71405
3.65712
3.60055
3.54447
3.48892
3.43396
3.37964
3.32596
3.273
3.22073
3.16923
3.11842
3.06841
3.01914
2.97075
2.92304
2.87616
2.83002
2.7849
2.74046
2.69689
2.65404
2.61226
2.57151
2.53249
2.49598
2.46432
2.44302
3.6937
2.30079
1.71203
1.46765
1.35615
1.27678
1.26271
1.27157
1.29592
1.34572
1.39083
1.40805
1.40753
1.40546
1.40117
1.40119
1.40166
1.40288
1.40513
1.40521
1.40492
1.40401
1.402
1.39871
1.39555
1.39267
1.39006
1.38773
1.38792
1.38915
1.39305
1.40368
1.42972
1.49165
1.63739
1.97736
2.7746
3.84732
3.90798
3.90457
3.93262
4.01522
4.13083
4.2536
4.3653
4.46271
4.53841
4.59057
4.62246
4.63929
4.64414
4.64294
4.63742
4.62346
4.59559
4.56328
4.52902
4.49288
4.45357
4.41108
4.36526
4.31694
4.26639
4.2143
4.16079
4.10633
4.05098
3.99503
3.93857
3.88176
3.82475
3.76766
3.71071
3.65393
3.59758
3.54161
3.48624
3.43134
3.37716
3.32352
3.27068
3.21844
3.16712
3.11642
3.06647
3.01736
2.96919
2.92165
2.87506
2.82905
2.78384
2.7393
2.69576
2.65296
2.61122
2.57042
2.53124
2.49427
2.46232
2.43887
4.53596
3.23498
2.42016
1.9056
1.57381
1.37016
1.25086
1.24113
1.24911
1.27191
1.31916
1.36239
1.38985
1.40267
1.40271
1.40213
1.40068
1.39943
1.39944
1.39943
1.3993
1.39892
1.39806
1.39628
1.3936
1.39058
1.38777
1.385
1.38487
1.38554
1.38796
1.39552
1.41429
1.45979
1.56818
1.8206
2.39884
3.62078
4.01803
4.07704
4.10109
4.14783
4.20788
4.27698
4.35327
4.42801
4.49658
4.55271
4.58949
4.60978
4.61685
4.6162
4.61259
4.60267
4.58123
4.54916
4.5144
4.47812
4.43934
4.39778
4.3531
4.3058
4.25621
4.20486
4.15208
4.09815
4.04337
3.98784
3.93184
3.87539
3.81882
3.76207
3.70551
3.64902
3.593
3.53723
3.48214
3.42739
3.37348
3.32003
3.26743
3.21531
3.16421
3.11365
3.06423
3.01514
2.96702
2.91947
2.87294
2.82696
2.78195
2.73753
2.69413
2.65136
2.60969
2.56881
2.52948
2.49206
2.4589
2.43413
5.00391
3.82125
2.94966
2.34442
1.93937
1.66772
1.49761
1.38973
1.32737
1.31241
1.31623
1.32859
1.35473
1.38392
1.40376
1.41267
1.41238
1.41106
1.40806
1.40403
1.40168
1.40051
1.39994
1.39917
1.39784
1.39525
1.39187
1.38834
1.38559
1.38583
1.38727
1.39201
1.40453
1.43545
1.50925
1.68339
2.0925
3.04181
4.07138
4.44209
4.4394
4.42258
4.38456
4.34407
4.34728
4.3666
4.41465
4.47681
4.5255
4.55804
4.57389
4.5767
4.57468
4.5681
4.55312
4.52497
4.49122
4.45505
4.41686
4.37651
4.33352
4.2879
4.23988
4.18978
4.1381
4.08505
4.0311
3.97624
3.92094
3.86509
3.80915
3.75293
3.69693
3.64089
3.58533
3.52994
3.47523
3.42077
3.36722
3.31415
3.26203
3.21029
3.15946
3.10908
3.05977
3.01087
2.96301
2.91563
2.86933
2.8235
2.77875
2.73445
2.69125
2.64854
2.60699
2.56608
2.52667
2.48892
2.45456
2.42901
5.28514
4.24622
3.40487
2.77082
2.30838
1.97239
1.72874
1.55442
1.43235
1.35586
1.31737
1.31764
1.32169
1.33259
1.35484
1.37515
1.38928
1.39806
1.39885
1.39839
1.3971
1.39447
1.39205
1.39021
1.38868
1.38749
1.38619
1.38453
1.38197
1.38209
1.38302
1.38594
1.39459
1.41618
1.46818
1.59191
1.88093
2.54183
3.9413
4.91142
4.90118
4.82839
4.66567
4.46534
4.35718
4.33726
4.34359
4.36731
4.41743
4.46716
4.50184
4.5208
4.52378
4.5214
4.51325
4.49485
4.4643
4.42849
4.39056
4.35081
4.30924
4.26554
4.21959
4.17125
4.1211
4.06927
4.01639
3.96242
3.90797
3.85287
3.79771
3.7422
3.6869
3.63145
3.5765
3.52159
3.46744
3.41361
3.36062
3.30787
3.25609
3.20464
3.15415
3.10401
3.05496
3.00629
2.95872
2.91153
2.86547
2.8198
2.77527
2.73112
2.68811
2.64551
2.60408
2.56322
2.52374
2.48577
2.45073
2.42397
5.47467
4.57237
3.78954
3.15742
2.66527
2.28821
2.00104
1.7847
1.62274
1.50651
1.4218
1.36863
1.33981
1.33904
1.34177
1.34964
1.36598
1.38329
1.3963
1.40469
1.40491
1.40433
1.40262
1.39902
1.39484
1.39141
1.38856
1.3864
1.38384
1.38372
1.38435
1.38656
1.39345
1.41047
1.4513
1.54729
1.77158
2.28874
3.47897
5.39994
5.46546
5.34538
5.05973
4.69695
4.47016
4.35104
4.30708
4.30537
4.31217
4.33425
4.37886
4.41865
4.44478
4.45428
4.45275
4.44593
4.42964
4.39759
4.36152
4.32196
4.28089
4.23844
4.19433
4.14794
4.09968
4.0495
3.99803
3.94521
3.89178
3.83759
3.7833
3.72856
3.67401
3.61919
3.56493
3.5108
3.45737
3.40415
3.35169
3.29938
3.248
3.19689
3.14678
3.09696
3.04821
2.99981
2.95253
2.90559
2.8598
2.81438
2.77009
2.72618
2.68339
2.64101
2.59974
2.55902
2.51958
2.48151
2.44619
2.41838
5.60667
4.82061
4.10525
3.49495
2.9947
2.59296
2.274
2.0221
1.8236
1.66892
1.54865
1.45986
1.39528
1.3577
1.33945
1.33978
1.34239
1.34906
1.36253
1.37507
1.38421
1.38979
1.39
1.38969
1.3887
1.38661
1.38357
1.38092
1.37871
1.37885
1.37971
1.38246
1.38955
1.40652
1.44578
1.53461
1.73714
2.18877
3.18718
5.26066
5.84135
5.7503
5.49283
5.10398
4.75585
4.51925
4.36874
4.288
4.26143
4.25862
4.26492
4.28498
4.32522
4.35521
4.37325
4.37298
4.36905
4.35704
4.33119
4.29444
4.25363
4.21096
4.16714
4.12176
4.07507
4.02662
3.97685
3.92552
3.87342
3.8204
3.7672
3.71333
3.65975
3.60599
3.55266
3.49929
3.44655
3.39385
3.34193
3.29011
3.23919
3.18847
3.13877
3.08932
3.04095
2.99289
2.94593
2.89933
2.85383
2.8087
2.76467
2.72104
2.67847
2.63632
2.59522
2.55466
2.5153
2.47719
2.44175
2.41314
5.70086
5.01
4.3594
3.78142
3.28776
2.87599
2.53726
2.26095
2.03635
1.85492
1.7092
1.59382
1.50409
1.43692
1.38814
1.36006
1.34569
1.346
1.3483
1.35414
1.36596
1.37749
1.38708
1.39276
1.39264
1.39191
1.39008
1.38641
1.38281
1.38292
1.384
1.38774
1.39758
1.42088
1.47347
1.58832
1.83383
2.34444
3.20062
4.29672
5.32144
5.6079
5.55727
5.39111
5.06596
4.80703
4.56674
4.39308
4.28535
4.22887
4.21032
4.20669
4.21229
4.22866
4.25917
4.27976
4.28777
4.28582
4.27792
4.25968
4.22478
4.18421
4.13987
4.09405
4.04774
4.00033
3.95199
3.90223
3.85174
3.80022
3.74833
3.69593
3.64354
3.59079
3.53836
3.4857
3.43361
3.38148
3.33011
3.27882
3.22841
3.17817
3.12892
3.07989
3.03192
2.98424
2.93764
2.89139
2.84622
2.80143
2.75771
2.71437
2.67209
2.6302
2.58936
2.549
2.50983
2.47175
2.43636
2.40723
5.76934
5.15558
4.56389
4.02219
3.54423
3.13295
2.78451
2.4924
2.2488
2.04659
1.87928
1.7415
1.62886
1.53822
1.46722
1.41361
1.3755
1.35435
1.34481
1.3452
1.34725
1.35215
1.36179
1.37
1.37623
1.38025
1.38127
1.38114
1.3809
1.38144
1.38379
1.39065
1.40777
1.44729
1.53438
1.71957
2.10103
2.78317
3.29386
3.74264
4.26699
4.85835
5.23856
5.25537
5.19568
5.03732
4.79576
4.60516
4.42605
4.29355
4.21367
4.1718
4.1532
4.14751
4.15151
4.16282
4.18383
4.19753
4.1969
4.19268
4.18041
4.15431
4.11336
4.0677
4.0208
3.97305
3.925
3.87621
3.82722
3.77741
3.72737
3.67658
3.62564
3.57403
3.52256
3.47072
3.41936
3.3679
3.31717
3.26648
3.21665
3.16694
3.1182
3.06965
3.02213
2.97488
2.92869
2.88283
2.83804
2.79359
2.75022
2.70719
2.66522
2.62361
2.58305
2.54291
2.50397
2.46597
2.43069
2.40117
5.8209
5.26929
4.7292
4.22366
3.76621
3.36243
3.01187
2.71105
2.45467
2.23728
2.05347
1.89861
1.76862
1.66029
1.57114
1.49889
1.4428
1.4
1.36956
1.35278
1.34535
1.34575
1.34766
1.35217
1.36091
1.36916
1.37591
1.37974
1.38154
1.38484
1.39188
1.40734
1.44128
1.51484
1.67024
1.98752
2.62217
3.12883
3.36198
3.52515
3.73591
4.02612
4.4178
4.75311
4.95403
4.93973
4.88456
4.76632
4.58456
4.44471
4.3174
4.20932
4.14346
4.1099
4.08699
4.07868
4.08153
4.08936
4.10345
4.10673
4.10448
4.09619
4.07669
4.0388
3.99442
3.94626
3.89735
3.84858
3.80041
3.75202
3.70365
3.65445
3.60499
3.55467
3.50436
3.45351
3.40306
3.35239
3.3024
3.25238
3.20319
3.15409
3.1059
3.0579
3.01087
2.9641
2.91835
2.87292
2.82853
2.78447
2.74147
2.6988
2.65717
2.61588
2.57563
2.53576
2.4971
2.45926
2.42417
2.39436
5.86041
5.35974
4.86435
4.39297
3.95809
3.5662
3.21894
2.915
2.651
2.42312
2.22694
2.05869
1.91461
1.79172
1.68743
1.59959
1.52679
1.46731
1.4212
1.38599
1.36152
1.34788
1.34261
1.34303
1.34481
1.3489
1.35615
1.36427
1.37273
1.38189
1.39721
1.42859
1.4942
1.63091
1.91139
2.47961
3.06587
3.31649
3.40081
3.44614
3.5116
3.61609
3.7738
3.98287
4.27676
4.52226
4.68557
4.67846
4.64515
4.56671
4.42161
4.31295
4.2162
4.12713
4.0698
4.03856
4.0149
4.00315
4.00502
4.01019
4.0137
4.01239
4.00671
3.99221
3.9623
3.9184
3.87024
3.82157
3.77361
3.72572
3.67822
3.63015
3.582
3.53303
3.48403
3.43439
3.38503
3.33532
3.28618
3.23694
3.18845
3.14002
3.09245
3.04505
2.99858
2.95235
2.9071
2.86214
2.8182
2.77455
2.73194
2.68964
2.64838
2.60742
2.56752
2.52795
2.48959
2.45194
2.4171
2.38706
5.89221
5.43321
4.97629
4.53648
4.12451
3.74707
3.40662
3.10366
2.836
2.60137
2.39622
2.21761
2.0623
1.92761
1.81111
1.71076
1.62496
1.55229
1.4919
1.44253
1.40441
1.37525
1.35539
1.344
1.34132
1.34218
1.34509
1.35158
1.36462
1.3831
1.41275
1.47265
1.59491
1.84413
2.34941
2.9995
3.31306
3.40133
3.41941
3.41889
3.41803
3.4251
3.45259
3.52016
3.65516
3.84689
4.09536
4.30286
4.4479
4.46659
4.44712
4.39521
4.29109
4.19338
4.11561
4.04675
3.99244
3.95987
3.93709
3.92254
3.92049
3.92066
3.91976
3.91565
3.90435
3.87946
3.83972
3.7944
3.74773
3.70013
3.65277
3.60506
3.55761
3.50961
3.46174
3.4133
3.36509
3.31647
3.26831
3.21996
3.17226
3.12457
3.07767
3.03091
2.98502
2.93936
2.89464
2.85019
2.80672
2.76352
2.72134
2.67944
2.63857
2.59799
2.55845
2.51922
2.48122
2.4438
2.40926
2.37904
5.91917
5.49346
5.07093
4.66051
4.27092
3.90888
3.57752
3.27812
3.00987
2.77124
2.55991
2.37337
2.20917
2.06482
1.93829
1.82748
1.73098
1.64714
1.57519
1.5138
1.46282
1.42107
1.38874
1.36495
1.34841
1.34445
1.34584
1.35084
1.36293
1.38856
1.4409
1.54756
1.76432
2.20324
2.87634
3.2874
3.41521
3.43141
3.42549
3.4077
3.36889
3.31973
3.29797
3.3049
3.33154
3.39518
3.52273
3.69006
3.89743
4.08799
4.22321
4.27845
4.26906
4.23806
4.17452
4.08728
4.01734
3.95822
3.91025
3.87551
3.85047
3.83552
3.8309
3.8289
3.82423
3.81341
3.79099
3.75686
3.7169
3.67233
3.62614
3.57887
3.5318
3.4844
3.4374
3.39006
3.34307
3.29569
3.24871
3.20143
3.15469
3.10785
3.0617
3.01562
2.97037
2.92529
2.88114
2.8372
2.79424
2.75152
2.7098
2.66833
2.6279
2.58771
2.54858
2.50971
2.4721
2.43495
2.40075
2.37041
5.94681
5.54911
5.15568
4.77069
4.40188
4.05488
3.73334
3.43901
3.17205
2.9316
2.71618
2.52386
2.35269
2.2006
2.06579
1.94632
1.84095
1.74789
1.66653
1.59536
1.53412
1.48191
1.43833
1.40345
1.37669
1.36186
1.3631
1.36917
1.38601
1.42513
1.50968
1.68589
2.04338
2.71202
3.21848
3.40924
3.44286
3.43906
3.42424
3.38884
3.32288
3.26063
3.21105
3.17819
3.17352
3.18107
3.206
3.26265
3.37347
3.51918
3.6945
3.87246
4.00807
4.099
4.10773
4.09523
4.06219
3.99395
3.92349
3.86823
3.82294
3.78631
3.76001
3.74492
3.73825
3.73271
3.7228
3.70286
3.67438
3.63758
3.59593
3.55102
3.5051
3.45837
3.41194
3.3653
3.31922
3.27292
3.2271
3.181
3.13538
3.08957
3.04434
2.99906
2.95455
2.9101
2.86655
2.82315
2.78073
2.73849
2.69727
2.65626
2.61629
2.57652
2.53784
2.49936
2.46219
2.42535
2.39153
2.36112
5.98246
5.60508
5.23454
4.87125
4.5209
4.18809
3.87627
3.58778
3.32332
3.08265
2.86473
2.66845
2.49189
2.33374
2.19215
2.06554
1.95275
1.85198
1.76274
1.68339
1.61368
1.55271
1.49982
1.45607
1.41975
1.39895
1.40082
1.41027
1.43737
1.50212
1.64342
1.9362
2.52909
3.10295
3.3798
3.4455
3.44422
3.43309
3.40212
3.33907
3.27226
3.21283
3.16077
3.11617
3.08061
3.05435
3.04971
3.05582
3.07559
3.1207
3.21059
3.33664
3.49085
3.65654
3.80728
3.91279
3.96995
3.9633
3.94155
3.90295
3.83948
3.77832
3.7303
3.6938
3.66702
3.6515
3.64219
3.63059
3.61423
3.58841
3.5565
3.51799
3.47602
3.43143
3.38613
3.34011
3.29455
3.24886
3.20385
3.15872
3.11419
3.06946
3.02531
2.981
2.93737
2.8937
2.85085
2.80807
2.76622
2.72452
2.68381
2.64329
2.6038
2.56451
2.52631
2.4882
2.45155
2.41504
2.38163
2.3512
6.03582
5.66501
5.31035
4.96531
4.62994
4.30944
4.00717
3.72489
3.46374
3.22415
3.00505
2.8063
2.6259
2.46303
2.31614
2.18359
2.06468
1.95739
1.86149
1.77527
1.69843
1.63036
1.56966
1.51992
1.47502
1.45927
1.46329
1.4805
1.52832
1.64107
1.88403
2.38622
3.00445
3.34474
3.44957
3.45086
3.44036
3.40936
3.34554
3.27883
3.22053
3.16806
3.11916
3.07278
3.02905
2.98996
2.95626
2.9316
2.92094
2.9251
2.93956
2.97383
3.04392
3.15095
3.28815
3.4467
3.60702
3.73521
3.82372
3.84427
3.83462
3.80908
3.75357
3.68654
3.63397
3.59468
3.56725
3.54843
3.53368
3.51696
3.49676
3.46922
3.43671
3.39865
3.35764
3.3141
3.26987
3.22486
3.18033
3.13569
3.0918
3.04787
3.00464
2.96129
2.91862
2.87585
2.83384
2.79181
2.75065
2.70957
2.66944
2.62945
2.59049
2.55169
2.51398
2.47637
2.44015
2.40403
2.37107
2.34067
6.11656
5.73176
5.38368
5.05103
4.72939
4.42007
4.12693
3.85161
3.59423
3.35683
3.13777
2.93752
2.75475
2.58812
2.43722
2.29975
2.17577
2.06299
1.9614
1.86936
1.78649
1.7125
1.64591
1.59194
1.54402
1.54451
1.55414
1.58741
1.67618
1.87545
2.29565
2.95135
3.34034
3.47535
3.4779
3.46689
3.4306
3.35559
3.28278
3.22177
3.17019
3.12197
3.076
3.03082
2.98635
2.94297
2.9017
2.86407
2.83064
2.80646
2.78944
2.79225
2.80256
2.82777
2.87832
2.97003
3.09306
3.24507
3.40822
3.56329
3.67262
3.74033
3.73315
3.71057
3.67517
3.61312
3.55258
3.50457
3.46929
3.44421
3.42404
3.40286
3.38001
3.35145
3.3188
3.28152
3.24159
3.19931
3.15634
3.11255
3.06919
3.02571
2.98303
2.94035
2.89847
2.85655
2.81541
2.77422
2.73386
2.69352
2.65407
2.61473
2.57635
2.53811
2.50093
2.46382
2.42808
2.39238
2.35988
2.32956
6.19888
5.80486
5.45591
5.13141
4.82073
4.52327
4.23739
3.9686
3.716
3.48097
3.26344
3.06244
2.87838
2.70916
2.55494
2.41379
2.28525
2.16811
2.06141
1.96453
1.87666
1.79742
1.72865
1.66904
1.64256
1.64807
1.67308
1.74424
1.91111
2.26319
2.94159
3.38363
3.54121
3.54041
3.52648
3.48093
3.39172
3.31243
3.24247
3.18072
3.12588
3.07646
3.0313
2.98672
2.94277
2.89928
2.85646
2.81462
2.77493
2.73795
2.70534
2.68006
2.65961
2.65992
2.66536
2.68254
2.72069
2.79667
2.90716
3.0504
3.21611
3.39081
3.52725
3.63299
3.6321
3.61856
3.5871
3.52177
3.4615
3.412
3.37216
3.34166
3.31625
3.29107
3.26529
3.23578
3.20302
3.16673
3.12805
3.08721
3.04567
3.00323
2.96116
2.91896
2.87757
2.83625
2.7958
2.75539
2.71582
2.67629
2.63761
2.599
2.56131
2.52371
2.48715
2.45054
2.41539
2.38012
2.3481
2.31789
6.32447
5.9004
5.53393
5.20954
4.90583
4.61677
4.34024
4.07734
3.83018
3.5983
3.38252
3.18212
2.99698
2.82639
2.66931
2.52532
2.393
2.272
2.16114
2.05997
1.96806
1.88578
1.81562
1.76395
1.76593
1.78342
1.84199
1.98845
2.3057
2.95047
3.46326
3.65275
3.65097
3.63121
3.57357
3.47036
3.37572
3.29523
3.22488
3.16154
3.10255
3.04684
2.99468
2.94649
2.90113
2.85693
2.81338
2.77062
2.7288
2.68826
2.64975
2.61347
2.58166
2.55455
2.53434
2.52726
2.53102
2.54358
2.57313
2.63397
2.7326
2.8658
3.03313
3.22117
3.38732
3.51571
3.53293
3.52186
3.49103
3.42903
3.36978
3.3191
3.27529
3.23995
3.20996
3.18152
3.15326
3.12298
3.09042
3.05496
3.01759
2.97812
2.93802
2.897
2.85634
2.81557
2.77562
2.73579
2.69687
2.65805
2.62011
2.58226
2.54532
2.50842
2.47254
2.43656
2.402
2.3672
2.33574
2.3057
6.35226
6.00189
5.61989
5.2884
4.98815
4.70576
4.43688
4.18107
3.93814
3.70984
3.49611
3.29668
3.11137
2.93955
2.78071
2.63401
2.49891
2.37438
2.26018
2.15561
2.06067
1.97918
1.90985
1.89792
1.91035
1.95811
2.08996
2.38447
2.99678
3.58725
3.81621
3.81381
3.78871
3.71781
3.58661
3.46886
3.37275
3.29141
3.22016
3.15562
3.09328
3.0334
2.97565
2.92017
2.86856
2.82068
2.77454
2.73007
2.68691
2.64493
2.60411
2.56479
2.52727
2.49204
2.4607
2.43279
2.41296
2.40001
2.40247
2.41183
2.43511
2.48297
2.56904
2.69427
2.86265
3.05922
3.25332
3.40289
3.43101
3.42078
3.39177
3.33322
3.27466
3.22369
3.17764
3.13908
3.10587
3.07481
3.04489
3.01383
2.98139
2.94658
2.91036
2.8722
2.8336
2.79412
2.75505
2.71586
2.67749
2.63925
2.60193
2.56473
2.52848
2.49229
2.45709
2.42183
2.38789
2.35364
2.32272
2.29295
6.319
6.10898
5.71983
5.3738
5.0703
4.79178
4.52891
4.27863
4.04154
3.81646
3.60508
3.40678
3.22166
3.04917
2.88881
2.74019
2.60251
2.47536
2.35838
2.25141
2.1573
2.07666
2.0427
2.05179
2.09282
2.21075
2.48547
3.06557
3.74892
4.0265
4.02411
3.99446
3.90909
3.75286
3.61129
3.49323
3.39407
3.30726
3.22954
3.15754
3.09132
3.0293
2.96763
2.90769
2.84985
2.79464
2.7435
2.6958
2.65013
2.60617
2.56372
2.5227
2.48304
2.445
2.40859
2.37463
2.34365
2.31602
2.29591
2.27917
2.28094
2.28777
2.30558
2.34359
2.41976
2.53833
2.70566
2.90863
3.1294
3.29102
3.32725
3.31776
3.2901
3.23395
3.17718
3.127
3.07984
3.03926
3.0038
2.97085
2.93966
2.90805
2.8758
2.84158
2.80663
2.76981
2.73285
2.69504
2.65764
2.62011
2.58339
2.54677
2.51108
2.4755
2.44092
2.40632
2.37302
2.33937
2.30904
2.27958
6.22219
6.10686
5.84018
5.47533
5.15843
4.87804
4.61881
4.37348
4.14038
3.9193
3.70997
3.51315
3.32835
3.15547
2.99403
2.84375
2.70417
2.57496
2.45614
2.34998
2.2581
2.2036
2.20935
2.24322
2.34795
2.60366
3.15159
3.93402
4.2727
4.27122
4.239
4.14116
3.95994
3.79522
3.65772
3.54
3.43654
3.34275
3.25687
3.17662
3.10198
3.03124
2.96552
2.90328
2.84132
2.7815
2.72434
2.67073
2.62082
2.5736
2.52864
2.48559
2.44423
2.40442
2.36613
2.32948
2.29444
2.26179
2.23142
2.20467
2.18371
2.16597
2.16577
2.16995
2.18412
2.2174
2.28448
2.39621
2.56433
2.77511
3.01336
3.178
3.22168
3.21269
3.18625
3.13284
3.07828
3.029
2.98174
2.94007
2.9034
2.86939
2.83756
2.80573
2.77396
2.74055
2.70682
2.67148
2.63611
2.59996
2.56424
2.52838
2.49332
2.4583
2.42427
2.39021
2.35751
2.32441
2.29465
2.26555
6.11766
6.0677
5.90878
5.58315
5.25423
4.96749
4.70867
4.46665
4.23705
4.0189
3.81225
3.61621
3.43178
3.25867
3.09645
2.945
2.80404
2.67377
2.55544
2.45383
2.37859
2.38129
2.40904
2.50307
2.74515
3.26483
4.14508
4.54943
4.55495
4.51888
4.4058
4.19986
4.01306
3.85564
3.72074
3.6006
3.49149
3.39025
3.2961
3.20745
3.1245
3.04602
2.9727
2.90302
2.83866
2.77612
2.71534
2.65675
2.60101
2.54915
2.50072
2.45474
2.41095
2.36912
2.3291
2.2907
2.25393
2.21872
2.18513
2.15374
2.12423
2.09842
2.07687
2.05957
2.05629
2.0597
2.07193
2.10167
2.1628
2.26918
2.44072
2.65959
2.91067
3.06797
3.11681
3.10806
3.08219
3.03029
2.97843
2.92991
2.88362
2.84189
2.80498
2.77075
2.73892
2.70731
2.67609
2.64365
2.61103
2.57721
2.54331
2.50882
2.47479
2.44057
2.40719
2.37368
2.34157
2.3089
2.27975
2.25098
5.90065
5.96696
5.89478
5.7063
5.36894
5.06642
4.80142
4.55926
4.33169
4.11545
3.91038
3.71582
3.53189
3.3589
3.19635
3.04419
2.90302
2.77304
2.66183
2.56866
2.56505
2.58789
2.67148
2.89835
3.38292
4.35113
4.83868
4.86356
4.82356
4.69872
4.46825
4.2581
4.08161
3.92924
3.79362
3.66914
3.55375
3.4452
3.34335
3.24694
3.15636
3.07056
2.99006
2.91383
2.84245
2.77501
2.71234
2.65049
2.59125
2.53447
2.48104
2.43127
2.38431
2.33982
2.29752
2.2572
2.2187
2.18183
2.14658
2.11286
2.08071
2.0506
2.02214
1.9973
1.97571
1.95901
1.95384
1.95677
1.96775
1.99516
2.05234
2.15726
2.32976
2.5545
2.81846
2.96245
3.01208
3.00341
2.978
2.92758
2.87855
2.83135
2.78643
2.74557
2.70918
2.6753
2.64375
2.61261
2.58206
2.55066
2.51919
2.4868
2.45448
2.42161
2.38929
2.35659
2.32518
2.29307
2.26449
2.23606
5.3825
5.85076
5.83569
5.73473
5.50352
5.18312
4.90149
4.65279
4.42428
4.20962
4.00586
3.81286
3.62975
3.45654
3.29397
3.14224
3.00198
2.8794
2.77677
2.75591
2.77706
2.85884
3.0825
3.57414
4.56977
5.14342
5.19861
5.15595
5.01854
4.76176
4.52829
4.33158
4.16238
4.0107
3.8717
3.7417
3.61975
3.50424
3.39533
3.29197
3.19458
3.10215
3.01522
2.93277
2.85535
2.78209
2.7132
2.64865
2.58746
2.52758
2.47039
2.41583
2.36496
2.31729
2.27219
2.2294
2.18872
2.14999
2.11305
2.07775
2.04405
2.01184
1.98116
1.9524
1.92515
1.90135
1.88021
1.86412
1.85817
1.86085
1.8711
1.89717
1.95189
2.06021
2.23416
2.45603
2.72896
2.85939
2.90661
2.89815
2.87402
2.82644
2.77991
2.73469
2.69151
2.65189
2.61628
2.58303
2.552
2.5216
2.49182
2.46156
2.43136
2.40041
2.36975
2.33837
2.30807
2.27677
2.24893
2.22097
4.21289
5.54601
5.74944
5.7082
5.57778
5.30565
5.00883
4.74927
4.51703
4.30204
4.09934
3.90721
3.72517
3.55298
3.39126
3.24066
3.10781
2.99516
2.95937
2.97879
3.05883
3.28335
3.79012
4.82794
5.49603
5.57146
5.52394
5.36748
5.08185
4.82223
4.60495
4.41758
4.25016
4.09574
3.95172
3.81562
3.68723
3.56522
3.44996
3.34039
3.23698
3.13868
3.04603
2.95798
2.87514
2.79649
2.72261
2.65266
2.58693
2.5253
2.4657
2.40822
2.35345
2.30184
2.25356
2.20792
2.16469
2.12368
2.08472
2.04765
2.01235
1.97864
1.9465
1.91582
1.88662
1.85927
1.83327
1.81056
1.79027
1.77468
1.76904
1.77163
1.78169
1.80798
1.86294
1.97415
2.15199
2.37568
2.6415
2.76069
2.80361
2.79537
2.77228
2.72746
2.68382
2.64063
2.59929
2.56106
2.52647
2.4941
2.46392
2.43443
2.40572
2.37663
2.34791
2.31828
2.28963
2.25953
2.23281
2.20571
2.71449
4.82265
5.56413
5.6312
5.56959
5.41456
5.1232
4.85175
4.61248
4.39498
4.1921
4.00045
3.81902
3.64801
3.48809
3.34544
3.22348
3.17363
3.19152
3.27004
3.49579
4.01491
5.08762
5.87459
5.97829
5.92387
5.74522
5.42716
5.14039
4.90059
4.69492
4.51038
4.34065
4.18141
4.03151
3.88921
3.75466
3.62668
3.50569
3.39057
3.28179
3.17827
3.08052
2.9875
2.8998
2.81637
2.73788
2.66323
2.59318
2.52661
2.46442
2.40527
2.34802
2.29315
2.24116
2.19253
2.14657
2.10304
2.06179
2.02266
1.98549
1.95015
1.91651
1.88444
1.85389
1.8248
1.79706
1.77118
1.7465
1.72485
1.70578
1.69058
1.68615
1.68885
1.6993
1.72635
1.78338
1.89686
2.07507
2.30936
2.55985
2.6655
2.70393
2.6959
2.67385
2.63147
2.59061
2.5496
2.51028
2.47367
2.44041
2.40917
2.38008
2.35163
2.32423
2.29628
2.26939
2.24091
2.21562
2.18994
1.96942
3.31791
5.08995
5.5144
5.50978
5.43437
5.25481
4.97156
4.71598
4.4904
4.28462
4.09257
3.91214
3.74335
3.59089
3.46049
3.39924
3.41612
3.49474
3.72551
4.26219
5.38055
6.2692
6.40212
6.34266
6.14601
5.79594
5.48034
5.21801