/*--------------------------------*- C++ -*----------------------------------*\
  =========                 |
  \\      /  F ield         | OpenFOAM: The Open Source CFD Toolbox
   \\    /   O peration     | Website:  https://openfoam.org
    \\  /    A nd           | Version:  13
     \\/     M anipulation  |
\*---------------------------------------------------------------------------*/
FoamFile
{
    format      ascii;
    class       surfaceScalarField;
    location    "2.5";
    object      phi;
}
// * * * * * * * * * * * * * * * * * * * * * * * * * * * * * * * * * * * * * //

dimensions      [1 0 -1 0 0 0 0];

internalField   nonuniform List<scalar> 
10325
(
0.0840003
1.32379e-09
0.0840005
3.20764e-09
0.0839996
2.29559e-08
0.0840019
3.30356e-08
0.0839963
1.69442e-07
0.084009
2.34132e-07
0.0839785
1.07412e-06
0.0840424
1.50677e-06
0.0839009
6.40339e-06
0.0841091
1.1073e-05
0.0837524
3.68304e-05
0.0839466
9.23215e-05
0.0833339
0.0003021
0.0822012
0.00109736
0.075925
0.00558479
0.0691201
0.00703879
0.0627122
0.00646337
0.0561515
0.00655624
0.0493082
0.00684648
0.0420677
0.00726381
0.0344837
0.00764619
0.0265793
0.00798351
0.0182957
0.00836274
0.00949741
0.00888019
0.00954958
0.0840003
1.09111e-09
0.0840004
1.26005e-08
0.0839998
2.9686e-08
0.0840014
1.2042e-07
0.0839974
2.25118e-07
0.0840062
7.67998e-07
0.0839846
1.44618e-06
0.0840228
4.69613e-06
0.0839374
9.35733e-06
0.0840473
2.81874e-05
0.0838116
6.64568e-05
0.0838952
0.000194486
0.083367
0.000598439
0.0822073
0.00218284
0.076212
0.0108973
0.0692896
0.0141943
0.0630583
0.0127534
0.0566617
0.0129494
0.0499382
0.013573
0.0426961
0.014528
0.0350515
0.0153532
0.0269829
0.0161311
0.0184101
0.0170139
0.00934543
0.0180257
0.0189457
0.0840003
2.11806e-09
0.0840005
1.48914e-08
0.0839997
4.86037e-08
0.0840018
1.44474e-07
0.0839966
3.64213e-07
0.0840084
9.93719e-07
0.0839802
2.2077e-06
0.0840391
6.49154e-06
0.0839092
1.34264e-05
0.0841022
4.04599e-05
0.0837714
9.37531e-05
0.0839626
0.000278967
0.0834099
0.000847948
0.0824825
0.0030885
0.0775198
0.0151695
0.0706029
0.0213357
0.0643884
0.0190383
0.0580774
0.0192609
0.0514492
0.0202036
0.0442316
0.0217628
0.0364985
0.0231469
0.0281905
0.0245231
0.0192409
0.0260405
0.00973847
0.0276023
0.0287272
0.0840003
2.63438e-09
0.0840004
1.65253e-08
0.0840003
5.64767e-08
0.0840001
1.64183e-07
0.0839998
4.24353e-07
0.0840007
1.09642e-06
0.0839933
2.78716e-06
0.0840092
6.81847e-06
0.0839597
1.789e-05
0.0840282
4.38677e-05
0.0838885
0.00011799
0.0839174
0.000323487
0.0836122
0.00101183
0.083006
0.00362165
0.0800937
0.0174262
0.0734148
0.0282176
0.0669703
0.0255531
0.0606068
0.0256306
0.0539779
0.0268414
0.0467666
0.02901
0.0388225
0.0311628
0.0301076
0.0333129
0.020648
0.0355669
0.0105064
0.0378056
0.0392575
0.0840003
2.69256e-09
0.0840004
1.69956e-08
0.084
5.86137e-08
0.0840009
1.64775e-07
0.0839984
4.42069e-07
0.0840045
1.09155e-06
0.0839875
2.86845e-06
0.0840282
6.88957e-06
0.0839338
1.80609e-05
0.0840972
4.43567e-05
0.0838495
0.000117865
0.0840823
0.000320443
0.0838462
0.00098617
0.0840214
0.00347107
0.0848129
0.0160093
0.0784056
0.0347566
0.0708904
0.0331524
0.0641292
0.0324194
0.0572786
0.0337184
0.0498981
0.0364145
0.0416572
0.0394631
0.0325316
0.0424906
0.0224831
0.0456624
0.0115378
0.0488003
0.050817
0.0840003
3.03339e-09
0.0840004
1.46986e-08
0.084
6.44896e-08
0.0840009
1.43438e-07
0.0839983
4.77039e-07
0.0840051
9.9422e-07
0.0839872
2.90748e-06
0.0840308
6.47841e-06
0.0839359
1.71708e-05
0.0841095
4.17891e-05
0.0838591
0.000107328
0.0841536
0.000289958
0.084009
0.000860228
0.0846086
0.00292877
0.087384
0.0128857
0.0815665
0.0404643
0.073522
0.0411585
0.0666723
0.0392482
0.060027
0.0403535
0.0527231
0.0437146
0.044391
0.0478163
0.0350794
0.0518311
0.0246364
0.0561331
0.0129044
0.060559
0.0637152
0.0840003
2.36686e-09
0.0840002
1.75851e-08
0.0840007
5.27631e-08
0.0839995
1.71965e-07
0.0840023
3.9647e-07
0.083996
1.13282e-06
0.0840092
2.55687e-06
0.0839823
6.89075e-06
0.0840287
1.61079e-05
0.083947
4.17922e-05
0.0840626
0.000104163
0.083907
0.000281592
0.0840545
0.000824415
0.0841094
0.00275703
0.084899
0.0118845
0.0810495
0.0440457
0.0738133
0.0482707
0.0680646
0.0449858
0.0620317
0.0463756
0.0550959
0.0506519
0.0471145
0.0558133
0.0378831
0.0610891
0.0272232
0.0668166
0.0147134
0.0730764
0.0783997
0.0840003
2.75413e-09
0.0840003
1.72374e-08
0.0840003
5.82985e-08
0.0840001
1.69476e-07
0.0840004
4.31047e-07
0.0839999
1.10486e-06
0.0839984
2.77812e-06
0.0840021
6.71268e-06
0.0839854
1.74281e-05
0.0840106
4.15778e-05
0.083966
0.000109888
0.083977
0.000285672
0.0839298
0.000840224
0.0838986
0.00276659
0.0841431
0.0114575
0.0795523
0.0483782
0.0758805
0.0518266
0.0699672
0.050951
0.0634124
0.0529383
0.0572954
0.0567699
0.0499775
0.0631115
0.0412182
0.069838
0.0306339
0.0773971
0.017519
0.0861852
0.0958871
0.0840003
3.66732e-09
0.0840004
1.52185e-08
0.0840001
7.22167e-08
0.0840008
1.48256e-07
0.0839986
5.29448e-07
0.0840042
1.00237e-06
0.0839893
3.32227e-06
0.0840249
6.34347e-06
0.0839435
1.99504e-05
0.0840957
4.13487e-05
0.0838397
0.000119234
0.0841187
0.000293821
0.0837937
0.000870536
0.083897
0.00281899
0.0839315
0.0112057
0.080526
0.0515008
0.0760899
0.0562534
0.0711588
0.0559082
0.0657016
0.0583986
0.0598406
0.0626345
0.0533536
0.0696004
0.0454945
0.0777042
0.0359273
0.0869746
0.0223292
0.0997887
0.118174
0.0840003
2.70633e-09
0.0840003
2.04363e-08
0.0840003
6.17005e-08
0.0840002
1.99143e-07
0.0840006
4.64977e-07
0.0839981
1.31474e-06
0.0840052
2.9858e-06
0.0839828
8.00725e-06
0.0840313
1.87973e-05
0.0839294
4.81423e-05
0.0840717
0.000119895
0.0838672
0.000316367
0.0839829
0.000895523
0.0837572
0.00288635
0.0839076
0.0110117
0.0820883
0.0529883
0.0773724
0.0609958
0.0728484
0.0604645
0.0684159
0.0628396
0.0633222
0.0677281
0.0580197
0.0749017
0.0519811
0.0837444
0.0434235
0.0955348
0.0306924
0.112519
0.148828
0.0840003
3.24791e-09
0.0840004
1.8906e-08
0.0840001
7.07801e-08
0.0840009
1.85036e-07
0.083999
5.21381e-07
0.0840034
1.2584e-06
0.0839939
3.23268e-06
0.0840113
8.02599e-06
0.0839755
1.9468e-05
0.0840306
5.06941e-05
0.0839281
0.000122781
0.0840376
0.000330503
0.0838591
0.000911933
0.0838996
0.00290964
0.0840668
0.0107168
0.084885
0.0518253
0.080044
0.0658899
0.0751859
0.0653627
0.0713566
0.0666806
0.0675327
0.0715525
0.0638086
0.0786222
0.0596638
0.0878829
0.055858
0.0993306
0.0559887
0.11237
0.116476
0.0883074
0.0840003
3.02668e-09
0.0840002
1.9887e-08
0.0840005
6.6531e-08
0.0839998
1.93586e-07
0.0840018
5.00752e-07
0.0839968
1.27913e-06
0.084009
3.19251e-06
0.0839812
7.92785e-06
0.0840455
1.97373e-05
0.0839139
4.93014e-05
0.0841344
0.000124583
0.0838271
0.000323259
0.0841453
0.000895533
0.083994
0.00277392
0.0847932
0.00996426
0.0901814
0.0460439
0.0849138
0.0712297
0.0792125
0.071124
0.0752256
0.0706955
0.0720031
0.0747857
0.0692178
0.081413
0.0672371
0.0898646
0.0671221
0.0994439
0.0719552
0.107533
0.105791
0.0826096
0.0840003
2.83669e-09
0.0840003
1.73258e-08
0.0840005
6.02297e-08
0.0839998
1.69521e-07
0.0840017
4.46799e-07
0.0839974
1.12726e-06
0.0840085
2.84705e-06
0.0839852
6.99157e-06
0.0840426
1.76894e-05
0.0839341
4.29937e-05
0.0841467
0.000110508
0.083895
0.000278437
0.084333
0.000762303
0.0845325
0.00226979
0.0867547
0.00782104
0.0992071
0.0331641
0.0924696
0.0780266
0.0857067
0.0779384
0.0808245
0.0756079
0.0774889
0.0781389
0.075293
0.0836209
0.0747476
0.0904187
0.0771051
0.0970867
0.0828159
0.101831
0.0992198
0.0893794
0.0840003
2.09829e-09
0.0840003
1.56276e-08
0.0840004
4.70198e-08
0.0840002
1.5224e-07
0.0840008
3.5177e-07
0.0839991
9.90572e-07
0.0840047
2.24193e-06
0.0839918
6.01437e-06
0.0840294
1.39393e-05
0.0839587
3.59933e-05
0.0841294
8.70152e-05
0.0839492
0.000222449
0.0843924
0.000583008
0.0847171
0.00167683
0.0871635
0.00547901
0.0980858
0.02203
0.0970323
0.0789812
0.0930584
0.081914
0.0868392
0.0818341
0.083364
0.0816276
0.0817795
0.0852197
0.0819572
0.0902587
0.0844601
0.0945829
0.089369
0.0969319
0.0940561
0.0945351
0.0840003
1.94289e-09
0.0840004
1.29005e-08
0.0840002
4.30038e-08
0.0840007
1.26309e-07
0.0839997
3.18411e-07
0.0840022
8.38227e-07
0.0839973
1.98708e-06
0.0840094
5.16833e-06
0.0839875
1.20571e-05
0.0840356
3.13964e-05
0.0839672
7.41699e-05
0.0841177
0.000193311
0.0840269
0.000492644
0.0844673
0.00139995
0.085343
0.00444757
0.0903266
0.0169822
0.0975468
0.0714587
0.0948406
0.0845869
0.0911616
0.0854931
0.088297
0.0844931
0.0872497
0.0862685
0.0877991
0.0897177
0.0900357
0.092345
0.0940244
0.0929448
0.0898287
0.0982541
0.0840003
1.92626e-09
0.0840004
1.05411e-08
0.0840002
4.02474e-08
0.0840006
1.03396e-07
0.0839998
2.97987e-07
0.0840021
6.89269e-07
0.0839968
1.883e-06
0.084011
4.25831e-06
0.0839813
1.15004e-05
0.0840556
2.63598e-05
0.0839184
6.98618e-05
0.0841798
0.00016797
0.0838921
0.000446855
0.0843978
0.00121913
0.0847436
0.0038022
0.0880186
0.0137678
0.0987478
0.0603984
0.0974504
0.0858871
0.0948318
0.0881159
0.0924511
0.0868759
0.0917204
0.0870014
0.092501
0.0889463
0.0944046
0.09043
0.0974284
0.0899168
0.0865015
0.100757
0.0840003
1.53889e-09
0.0840003
9.37224e-09
0.0840003
3.33891e-08
0.0840005
9.15306e-08
0.0840001
2.47811e-07
0.0840009
6.13403e-07
0.0840002
1.55245e-06
0.0840009
3.82979e-06
0.084004
9.46875e-06
0.0839972
2.3611e-05
0.084028
5.82612e-05
0.0840077
0.000147186
0.0841208
0.000375701
0.0842678
0.00101961
0.0850254
0.00304637
0.0881696
0.0105445
0.105292
0.0429641
0.102415
0.0887473
0.100229
0.0903001
0.0970635
0.0900544
0.0959101
0.0881586
0.0964791
0.0883922
0.0980966
0.0888219
0.100331
0.0876734
0.0841372
0.102692
0.0840003
1.16368e-09
0.0840003
7.53669e-09
0.0840003
2.58045e-08
0.0840004
7.37139e-08
0.0840004
1.90694e-07
0.0840003
4.91298e-07
0.0840016
1.18643e-06
0.0839984
3.03075e-06
0.0840119
7.15717e-06
0.0839871
1.83811e-05
0.0840709
4.32896e-05
0.0839644
0.000111911
0.0842876
0.000272577
0.0842983
0.000727715
0.085525
0.00204543
0.0892594
0.0066125
0.106587
0.0255614
0.108828
0.0863782
0.106265
0.0928416
0.102923
0.0933821
0.100505
0.0905775
0.100187
0.0887091
0.101232
0.0877884
0.102863
0.0860512
0.0824874
0.104516
0.0840003
9.34001e-10
0.0840003
6.24445e-09
0.0840004
2.03454e-08
0.0840003
6.07808e-08
0.0840006
1.52027e-07
0.0839998
3.95028e-07
0.0840024
9.67714e-07
0.0839973
2.38813e-06
0.0840124
5.93822e-06
0.0839854
1.42856e-05
0.0840598
3.61908e-05
0.0839532
8.65236e-05
0.0842123
0.00022259
0.084088
0.000562958
0.0848359
0.00156935
0.0863198
0.00487385
0.0938115
0.0180917
0.108773
0.0711232
0.108648
0.0929356
0.106713
0.0952968
0.104337
0.0929498
0.103618
0.0894359
0.104072
0.0873478
0.105064
0.085074
0.0814431
0.106113
0.0840003
7.10972e-10
0.0840003
5.0103e-09
0.0840003
1.60644e-08
0.0840004
4.88242e-08
0.0840003
1.19614e-07
0.0840006
3.24558e-07
0.0840004
7.47343e-07
0.0840007
2.01055e-06
0.0840034
4.5514e-06
0.0839977
1.22255e-05
0.0840259
2.79116e-05
0.0839874
7.43141e-05
0.0841222
0.000176117
0.0840833
0.00046763
0.0845353
0.0012394
0.0855071
0.00374846
0.090572
0.0130452
0.110831
0.0505404
0.111702
0.0920103
0.110958
0.0960047
0.108765
0.0951325
0.107104
0.0911247
0.106838
0.0876377
0.107278
0.0846556
0.0809454
0.107795
0.0840003
6.13969e-10
0.0840003
3.46385e-09
0.0840003
1.30964e-08
0.0840004
3.38897e-08
0.0840003
9.66092e-08
0.0840007
2.25282e-07
0.0839999
5.98521e-07
0.084003
1.39178e-06
0.0839974
3.56639e-06
0.084018
8.4894e-06
0.0839846
2.11585e-05
0.0841001
5.16857e-05
0.0839624
0.000127257
0.0844009
0.000320479
0.0844331
0.000831379
0.086141
0.00234924
0.0914325
0.0075177
0.113897
0.0279989
0.117512
0.0882434
0.116321
0.0971709
0.11365
0.0977885
0.110943
0.0938452
0.10973
0.0888686
0.109521
0.0848884
0.0809249
0.109564
0.0840003
4.08792e-10
0.0840003
2.80351e-09
0.0840004
9.04044e-09
0.0840003
2.73845e-08
0.0840005
6.72297e-08
0.0840002
1.79486e-07
0.0840012
4.23549e-07
0.0839996
1.08633e-06
0.0840048
2.58298e-06
0.0839979
6.47558e-06
0.0840199
1.56643e-05
0.0840006
3.8592e-05
0.0840831
9.55652e-05
0.084079
0.000236456
0.0844107
0.000608683
0.0849505
0.00165545
0.0874327
0.00509958
0.0967459
0.0185476
0.116672
0.0680415
0.118338
0.0954855
0.117186
0.0989303
0.114208
0.0968431
0.112804
0.0902962
0.111927
0.0857856
0.0813423
0.111537
0.0840003
3.23625e-10
0.0840003
2.0077e-09
0.0840003
7.00693e-09
0.0840003
1.96014e-08
0.0840004
5.17744e-08
0.0840004
1.29129e-07
0.0840004
3.25096e-07
0.0840011
7.88606e-07
0.0839999
1.97575e-06
0.0840068
4.73638e-06
0.0839954
1.19443e-05
0.0840423
2.85749e-05
0.0839804
7.2332e-05
0.0841969
0.000176069
0.0841077
0.000451919
0.0848335
0.00119016
0.0861721
0.00347949
0.0930103
0.0117864
0.117789
0.04288
0.12082
0.0923862
0.121307
0.098473
0.119734
0.0984453
0.116072
0.09399
0.114579
0.0873002
0.082358
0.11358
0.0840003
2.36915e-10
0.0840003
1.42167e-09
0.0840003
5.10881e-09
0.0840003
1.39244e-08
0.0840003
3.76368e-08
0.0840004
9.20817e-08
0.0840003
2.33493e-07
0.0840012
5.6417e-07
0.0839997
1.39765e-06
0.0840066
3.40551e-06
0.0839957
8.30566e-06
0.0840398
2.04629e-05
0.0839812
4.96679e-05
0.0841979
0.000123697
0.084057
0.000305282
0.0848204
0.00079037
0.0857353
0.00217492
0.0909219
0.00679074
0.109314
0.0242981
0.123645
0.0778384
0.124271
0.0978557
0.122731
0.100005
0.119182
0.0975738
0.117544
0.0889634
0.0839515
0.115968
0.0840003
1.72533e-10
0.0840003
1.02108e-09
0.0840003
3.65903e-09
0.0840003
9.96931e-09
0.0840004
2.70868e-08
0.0840003
6.52272e-08
0.0840005
1.7071e-07
0.0840006
3.93948e-07
0.0840006
1.03328e-06
0.0840031
2.35997e-06
0.0839993
6.17845e-06
0.0840215
1.42202e-05
0.083993
3.68568e-05
0.0841207
8.66961e-05
0.0840235
0.000223346
0.0845203
0.000552298
0.0848707
0.00149621
0.0875076
0.00440569
0.0961926
0.0153623
0.121469
0.0522941
0.125185
0.0940942
0.126223
0.0989907
0.125326
0.0984965
0.120898
0.0934231
0.0864048
0.118465
0.0840003
1.05611e-10
0.0840003
7.43113e-10
0.0840003
2.37362e-09
0.0840003
7.24134e-09
0.0840003
1.7603e-08
0.0840003
4.72742e-08
0.0840005
1.09748e-07
0.0840003
2.86155e-07
0.0840014
6.61347e-07
0.0839999
1.6928e-06
0.084008
3.96864e-06
0.083997
9.94526e-06
0.0840481
2.38189e-05
0.0839907
5.86663e-05
0.0842432
0.000143868
0.0841368
0.000356895
0.0850918
0.000919917
0.0865502
0.00254582
0.0940872
0.0080175
0.118595
0.0275915
0.129241
0.0832917
0.129389
0.0988405
0.127923
0.0999731
0.124173
0.097194
0.088956
0.121636
0.0840003
7.96744e-11
0.0840003
4.76982e-10
0.0840003
1.72666e-09
0.0840003
4.66121e-09
0.0840003
1.27164e-08
0.0840004
3.08767e-08
0.0840003
7.82365e-08
0.0840007
1.89476e-07
0.0840002
4.64454e-07
0.0840024
1.14378e-06
0.0839999
2.74083e-06
0.0840111
6.85547e-06
0.0840016
1.62375e-05
0.0840495
4.1155e-05
0.0840383
9.72601e-05
0.0842327
0.000249365
0.0843956
0.00061411
0.0854185
0.00166546
0.0883547
0.00491944
0.098816
0.0171075
0.125865
0.0558826
0.129907
0.0947305
0.131325
0.0985448
0.129892
0.0986301
0.0931746
0.125695
0.0840003
5.2179e-11
0.0840003
3.21729e-10
0.0840003
1.11746e-09
0.0840003
3.1435e-09
0.0840003
8.24087e-09
0.0840003
2.04857e-08
0.0840004
5.16021e-08
0.0840004
1.22345e-07
0.0840005
3.11214e-07
0.0840012
7.19192e-07
0.0840008
1.85261e-06
0.0840072
4.23879e-06
0.0840009
1.09354e-05
0.0840459
2.51044e-05
0.0840087
6.45697e-05
0.0842517
0.000151089
0.0842147
0.000388572
0.0852458
0.00097348
0.0870546
0.00272441
0.0958416
0.00852656
0.123091
0.0284009
0.133649
0.084015
0.133669
0.0984975
0.13295
0.099333
0.0968918
0.129228
0.0840003
3.38319e-11
0.0840003
2.15164e-10
0.0840003
7.39149e-10
0.0840003
2.09841e-09
0.0840003
5.44714e-09
0.0840003
1.36976e-08
0.0840003
3.37409e-08
0.0840004
8.28755e-08
0.0840005
2.00836e-07
0.0840006
4.93497e-07
0.0840017
1.18492e-06
0.084001
2.92385e-06
0.0840108
7.00364e-06
0.0840013
1.73335e-05
0.0840662
4.15625e-05
0.0840174
0.000103429
0.0843291
0.000252284
0.0843849
0.000640982
0.0857106
0.00169374
0.0888834
0.00502539
0.100182
0.0171814
0.129149
0.0546583
0.134133
0.0934225
0.135889
0.0975447
0.0983717
0.13439
0.0840003
2.10992e-11
0.0840003
1.40716e-10
0.0840003
4.71736e-10
0.0840003
1.36986e-09
0.0840003
3.47673e-09
0.0840003
8.94406e-09
0.0840003
2.13772e-08
0.0840004
5.40026e-08
0.0840005
1.26726e-07
0.0840005
3.18526e-07
0.0840014
7.47879e-07
0.0840007
1.86762e-06
0.0840082
4.41303e-06
0.0840012
1.08871e-05
0.08405
2.61536e-05
0.0840119
6.37636e-05
0.0842681
0.000156024
0.0842371
0.000384154
0.0853186
0.000983824
0.0872312
0.00269374
0.0962411
0.00838762
0.12338
0.0273054
0.13665
0.0799543
0.137135
0.0970124
0.0976965
0.137772
0.0840003
1.47768e-11
0.0840003
8.56859e-11
0.0840003
3.15837e-10
0.0840003
8.3698e-10
0.0840003
2.31656e-09
0.0840003
5.50034e-09
0.0840003
1.42204e-08
0.0840004
3.3313e-08
0.0840003
8.38187e-08
0.0840007
1.98875e-07
0.0840004
4.89178e-07
0.0840021
1.18158e-06
0.0840019
2.8478e-06
0.0840073
7.03826e-06
0.0840161
1.66083e-05
0.0840289
4.18369e-05
0.0841091
9.82975e-05
0.0841819
0.000250817
0.084637
0.00061074
0.0855642
0.00163524
0.0893128
0.00472614
0.100522
0.0159197
0.130644
0.0494632
0.137571
0.089976
0.0960444
0.139199
0.0840003
8.39668e-12
0.0840003
5.76673e-11
0.0840003
1.87143e-10
0.0840003
5.61459e-10
0.0840003
1.38158e-09
0.0840003
3.63588e-09
0.0840003
8.54882e-09
0.0840003
2.16878e-08
0.0840004
5.10185e-08
0.0840003
1.26773e-07
0.0840009
3.02171e-07
0.0840004
7.36777e-07
0.0840038
1.78521e-06
0.0840013
4.2787e-06
0.0840192
1.05182e-05
0.0840101
2.49515e-05
0.0840964
6.20177e-05
0.0841022
0.000147331
0.0844941
0.000371523
0.0849581
0.000925845
0.0873759
0.0025321
0.0953797
0.00771243
0.11992
0.0248164
0.138141
0.0715362
0.0947608
0.139376
0.0840003
5.50924e-12
0.0840003
3.44807e-11
0.0840003
1.20954e-10
0.0840003
3.36887e-10
0.0840003
8.8683e-10
0.0840003
2.21036e-09
0.0840003
5.41296e-09
0.0840004
1.33668e-08
0.0840003
3.17839e-08
0.0840004
7.91588e-08
0.0840005
1.85276e-07
0.0840008
4.6612e-07
0.0840016
1.08104e-06
0.0840018
2.7286e-06
0.0840102
6.33939e-06
0.0840055
1.59216e-05
0.0840638
3.73777e-05
0.0840363
9.32651e-05
0.0843415
0.000224107
0.0844259
0.000564458
0.0858309
0.00145252
0.0889944
0.00415139
0.100453
0.0134798
0.130325
0.0411735
0.0846853
0.140257
0.0840003
3.51957e-12
0.0840003
2.08648e-11
0.0840003
7.54331e-11
0.0840003
2.03446e-10
0.0840003
5.5271e-10
0.0840003
1.32413e-09
0.0840003
3.39926e-09
0.0840003
7.93122e-09
0.0840003
2.00716e-08
0.0840004
4.6758e-08
0.0840004
1.16939e-07
0.0840009
2.75378e-07
0.0840004
6.77936e-07
0.0840036
1.62254e-06
0.0840011
3.92737e-06
0.0840189
9.5623e-06
0.0840079
2.28071e-05
0.0840989
5.63927e-05
0.0840763
0.000134178
0.0844882
0.000336945
0.0848179
0.000832484
0.0869937
0.00224045
0.0935806
0.00665615
0.113379
0.0212745
0.0598563
0.137877
0.0840003
1.97338e-12
0.0840003
1.3064e-11
0.0840003
4.33998e-11
0.0840003
1.27248e-10
0.0840003
3.20049e-10
0.0840003
8.19491e-10
0.0840003
1.98062e-09
0.0840003
4.85258e-09
0.0840004
1.17706e-08
0.0840003
2.8186e-08
0.0840005
6.91479e-08
0.0840004
1.63287e-07
0.0840009
4.0408e-07
0.0840013
9.4536e-07
0.0840027
2.35512e-06
0.0840082
5.48551e-06
0.0840094
1.36645e-05
0.0840553
3.2014e-05
0.084051
7.94239e-05
0.0843165
0.000189414
0.0844513
0.000473194
0.0857685
0.00119487
0.0887495
0.00330761
0.0998506
0.0102894
0.0306833
0.128519
0.0840003
1.16938e-12
0.0840003
7.74746e-12
0.0840003
2.60529e-11
0.0840003
7.54487e-11
0.0840003
1.91146e-10
0.0840003
4.91447e-10
0.0840003
1.16255e-09
0.0840003
2.94688e-09
0.0840003
6.80984e-09
0.0840003
1.72311e-08
0.0840004
3.97635e-08
0.0840004
9.9765e-08
0.0840008
2.32537e-07
0.0840005
5.75118e-07
0.0840031
1.36207e-06
0.0840015
3.31002e-06
0.0840156
7.99132e-06
0.0840101
1.90532e-05
0.0840782
4.69535e-05
0.0840839
0.000110832
0.0843895
0.000278532
0.0847208
0.000675798
0.086422
0.00179021
0.0913566
0.00512144
0.0162984
0.105731
0.0840003
7.40363e-13
0.0840003
4.35746e-12
0.0840003
1.59002e-11
0.0840003
4.25122e-11
0.0840003
1.16203e-10
0.0840003
2.75952e-10
0.0840003
7.10474e-10
0.0840003
1.64375e-09
0.0840003
4.15227e-09
0.0840003
9.63124e-09
0.0840003
2.39649e-08
0.0840004
5.62752e-08
0.0840004
1.37664e-07
0.084001
3.28832e-07
0.0840008
7.89423e-07
0.0840036
1.91985e-06
0.0840044
4.52105e-06
0.0840152
1.12043e-05
0.0840323
2.59933e-05
0.0840735
6.52547e-05
0.0842075
0.000151768
0.084469
0.000384731
0.085326
0.000939377
0.0878491
0.00254359
0.00753981
0.0965929
0.0840003
4.03581e-13
0.0840003
2.61681e-12
0.0840003
8.84334e-12
0.0840003
2.54907e-11
0.0840003
6.48564e-11
0.0840003
1.64454e-10
0.0840003
3.96718e-10
0.0840003
9.73949e-10
0.0840003
2.33072e-09
0.0840003
5.65363e-09
0.0840004
1.35326e-08
0.0840003
3.26065e-08
0.0840005
7.84506e-08
0.0840005
1.87755e-07
0.0840011
4.53574e-07
0.0840015
1.08029e-06
0.0840035
2.62229e-06
0.084009
6.21804e-06
0.0840139
1.51352e-05
0.0840605
3.59208e-05
0.0840717
8.76165e-05
0.0843511
0.000210398
0.0845677
0.00052025
0.0860283
0.00131785
0.00364262
0.0895899
0.0840003
2.24415e-13
0.0840003
1.5221e-12
0.0840003
5.03513e-12
0.0840003
1.48139e-11
0.0840003
3.68793e-11
0.0840003
9.57743e-11
0.0840003
2.24293e-10
0.0840003
5.68397e-10
0.0840003
1.31358e-09
0.0840003
3.28424e-09
0.0840003
7.64832e-09
0.0840003
1.88455e-08
0.0840004
4.44479e-08
0.0840004
1.07697e-07
0.0840008
2.58527e-07
0.0840009
6.14589e-07
0.0840024
1.50387e-06
0.0840048
3.50777e-06
0.0840089
8.72001e-06
0.0840334
2.01341e-05
0.0840382
5.05131e-05
0.0842074
0.000116908
0.0842608
0.000295667
0.085131
0.000710207
0.00188069
0.086491
0.0840003
1.3404e-13
0.0840003
8.35419e-13
0.0840003
2.91462e-12
0.0840003
8.13406e-12
0.0840003
2.13315e-11
0.0840003
5.25157e-11
0.0840003
1.3007e-10
0.0840003
3.10635e-10
0.0840003
7.59294e-10
0.0840003
1.80105e-09
0.0840003
4.37905e-09
0.0840003
1.03895e-08
0.0840003
2.51617e-08
0.0840005
5.99144e-08
0.0840004
1.44224e-07
0.084001
3.44895e-07
0.0840011
8.26775e-07
0.0840033
1.98618e-06
0.0840063
4.73009e-06
0.0840141
1.14289e-05
0.0840425
2.71447e-05
0.0840685
6.58706e-05
0.0842608
0.000157233
0.0844652
0.00038652
0.000956814
0.0855325
0.0840003
7.68385e-14
0.0840003
4.57112e-13
0.0840003
1.65872e-12
0.0840003
4.45201e-12
0.0840003
1.20894e-11
0.0840003
2.87806e-11
0.0840003
7.33466e-11
0.0840003
1.70417e-10
0.0840003
4.24953e-10
0.0840003
9.90576e-10
0.0840003
2.43079e-09
0.0840003
5.7309e-09
0.0840003
1.38326e-08
0.0840004
3.31006e-08
0.0840004
7.85842e-08
0.0840007
1.90956e-07
0.0840009
4.45823e-07
0.0840018
1.09906e-06
0.0840043
2.53484e-06
0.0840065
6.29713e-06
0.0840276
1.44746e-05
0.0840314
3.59859e-05
0.0841669
8.32753e-05
0.0842013
0.000206962
0.000493139
0.0849092
0.0840003
4.01467e-14
0.0840003
2.64969e-13
0.0840003
8.83074e-13
0.0840003
2.57385e-12
0.0840003
6.44753e-12
0.0840003
1.64904e-11
0.0840003
3.93505e-11
0.0840003
9.66229e-11
0.0840003
2.30174e-10
0.0840003
5.53979e-10
0.0840003
1.32986e-09
0.0840003
3.15467e-09
0.0840003
7.65516e-09
0.0840003
1.79571e-08
0.0840004
4.39398e-08
0.0840005
1.02231e-07
0.0840006
2.51364e-07
0.0840013
5.83477e-07
0.0840015
1.43314e-06
0.084007
3.33959e-06
0.084006
8.13413e-06
0.0840409
1.91862e-05
0.0840327
4.62872e-05
0.0842303
0.000110657
0.000267599
0.0842394
0.0840003
2.14353e-14
0.0840003
1.42395e-13
0.0840003
4.85561e-13
0.0840003
1.38959e-12
0.0840003
3.54409e-12
0.0840003
8.94931e-12
0.0840003
2.13876e-11
0.0840003
5.28568e-11
0.0840003
1.23805e-10
0.0840003
3.04382e-10
0.0840003
7.10257e-10
0.0840003
1.73852e-09
0.0840003
4.07347e-09
0.0840003
9.87713e-09
0.0840004
2.33621e-08
0.0840004
5.60855e-08
0.0840006
1.3392e-07
0.0840006
3.18324e-07
0.0840018
7.66552e-07
0.0840022
1.80836e-06
0.0840075
4.39065e-06
0.0840142
1.02781e-05
0.0840334
2.51091e-05
0.0840936
5.88395e-05
0.000144178
0.0841769
0.0840003
1.21301e-14
0.0840003
7.55726e-14
0.0840003
2.6368e-13
0.0840003
7.39094e-13
0.0840003
1.92898e-12
0.0840003
4.74997e-12
0.0840003
1.16462e-11
0.0840003
2.79698e-11
0.0840003
6.72071e-11
0.0840003
1.61232e-10
0.0840003
3.83259e-10
0.0840003
9.22705e-10
0.0840003
2.1777e-09
0.0840003
5.27278e-09
0.0840003
1.23696e-08
0.0840004
3.00049e-08
0.0840005
7.0447e-08
0.0840005
1.70039e-07
0.0840012
4.01633e-07
0.0840011
9.62051e-07
0.0840055
2.28349e-06
0.084005
5.44148e-06
0.0840287
1.29925e-05
0.0840313
3.07704e-05
7.4024e-05
0.0841493
0.0840003
6.53839e-15
0.0840003
4.00164e-14
0.0840003
1.42019e-13
0.0840003
3.90162e-13
0.0840003
1.03461e-12
0.0840003
2.51611e-12
0.0840003
6.24219e-12
0.0840003
1.4821e-11
0.0840003
3.58758e-11
0.0840003
8.52852e-11
0.0840003
2.03475e-10
0.0840003
4.8763e-10
0.0840003
1.1512e-09
0.0840003
2.7744e-09
0.0840003
6.50884e-09
0.0840004
1.57853e-08
0.0840004
3.67836e-08
0.0840004
8.94643e-08
0.0840007
2.08486e-07
0.0840008
5.0492e-07
0.0840029
1.18382e-06
0.0840028
2.84221e-06
0.0840155
6.71598e-06
0.0840147
1.60014e-05
3.81441e-05
0.0840853
0.0840003
2.79377e-15
0.0840003
2.06428e-14
0.0840003
7.31145e-14
0.0840003
2.07371e-13
0.0840003
5.43088e-13
0.0840003
1.33139e-12
0.0840003
3.29684e-12
0.0840003
7.73818e-12
0.0840003
1.90761e-11
0.0840003
4.40182e-11
0.0840003
1.08891e-10
0.0840003
2.49697e-10
0.0840003
6.15266e-10
0.0840003
1.4206e-09
0.0840003
3.46406e-09
0.0840003
8.07702e-09
0.0840003
1.94446e-08
0.0840004
4.599e-08
0.0840005
1.08922e-07
0.0840008
2.61906e-07
0.0840013
6.09703e-07
0.0840023
1.48656e-06
0.0840069
3.42447e-06
0.084009
8.40632e-06
1.93026e-05
0.0840422
0.0840003
2.85882e-15
0.0840003
1.13848e-14
0.0840003
4.0678e-14
0.0840003
1.08231e-13
0.0840003
2.75363e-13
0.0840003
6.99043e-13
0.0840003
1.65092e-12
0.0840003
4.10513e-12
0.0840003
9.46498e-12
0.0840003
2.34132e-11
0.0840003
5.36686e-11
0.0840003
1.32117e-10
0.0840003
3.04358e-10
0.0840003
7.424e-10
0.0840003
1.72468e-09
0.0840003
4.16385e-09
0.0840004
9.78565e-09
0.0840004
2.32723e-08
0.0840004
5.54856e-08
0.0840005
1.30059e-07
0.0840009
3.14292e-07
0.0840015
7.26024e-07
0.0840031
1.77562e-06
0.084008
4.06659e-06
9.98707e-06
0.0840129
0.0840003
5.75928e-16
0.0840003
6.2758e-15
0.0840003
1.67954e-14
0.0840003
5.29988e-14
0.0840003
1.36205e-13
0.0840003
3.29958e-13
0.0840003
8.24197e-13
0.0840003
1.93226e-12
0.0840003
4.71113e-12
0.0840003
1.10187e-11
0.0840003
2.64973e-11
0.0840003
6.24276e-11
0.0840003
1.4818e-10
0.0840003
3.52026e-10
0.0840003
8.28035e-10
0.0840003
1.97692e-09
0.0840003
4.62095e-09
0.0840004
1.10747e-08
0.0840004
2.57196e-08
0.0840004
6.17874e-08
0.0840006
1.4312e-07
0.0840008
3.42478e-07
0.0840023
7.95189e-07
0.0840028
1.89101e-06
4.40559e-06
0.0840127
0.0840003
-3.00107e-16
0.0840003
7.3639e-16
0.0840003
6.54923e-15
0.0840003
1.78199e-14
0.0840003
5.13472e-14
0.0840003
1.31957e-13
0.0840003
3.1839e-13
0.0840003
7.84136e-13
0.0840003
1.84453e-12
0.0840003
4.4017e-12
0.0840003
1.04718e-11
0.0840003
2.44428e-11
0.0840003
5.88599e-11
0.0840003
1.35334e-10
0.0840003
3.28001e-10
0.0840003
7.46298e-10
0.0840003
1.816e-09
0.0840003
4.10708e-09
0.0840003
9.94336e-09
0.0840004
2.25677e-08
0.0840004
5.38442e-08
0.0840007
1.23568e-07
0.0840012
2.87558e-07
0.0840018
6.69155e-07
1.5219e-06
0.0840063
0.0840003
0.0840003
0.0840003
0.0840003
0.0840003
0.0840003
0.0840003
0.0840003
0.0840003
0.0840003
0.0840003
0.0840003
0.0840003
0.0840003
0.0840003
0.0840003
0.0840003
0.0840003
0.0840003
0.0840004
0.0840004
0.0840004
0.084001
0.0840005
0.0840047
0.0476416
0.0406259
0.0314725
0.016145
0.0245689
0.00688792
0.0218027
0.00275622
0.021632
0.000157011
0.0235324
-0.00190853
0.0257203
-0.00219464
0.0269289
-0.00121684
0.0273288
-0.000411524
0.0272622
5.44743e-05
0.0270272
0.000221858
0.0268929
0.000120255
0.0268636
1.52545e-05
0.0269488
-0.000100046
0.0270661
-0.000129914
0.0271628
-0.000110856
0.0272237
-7.35601e-05
0.0272542
-4.33241e-05
0.0272679
-2.59497e-05
0.0272717
-1.50666e-05
0.0272784
-1.74122e-05
0.0272949
-2.73841e-05
0.0273216
-3.69365e-05
0.0273509
-3.93127e-05
0.0273769
-3.74086e-05
0.027399
-3.41895e-05
0.0274161
-3.10569e-05
0.0274108
-2.32488e-05
0.0273957
-1.40304e-05
0.0273571
2.14763e-06
0.0272697
3.6684e-05
0.0270889
9.28998e-05
0.0267125
0.000204531
0.0258982
0.00045632
0.0240577
0.00107542
0.0194752
0.0028201
0.00767256
0.00828802
-0.00336075
0.0104717
-0.00966586
0.00624849
-0.0127296
0.00302242
-0.0132853
0.000608771
-0.0117564
-0.0014632
-0.00877671
-0.00309512
-0.00504919
-0.00391294
-0.000920367
-0.00431529
0.00314537
-0.00424256
0.00682995
-0.0038306
0.0102239
-0.00350174
0.0133748
-0.00324135
0.0163116
-0.00301567
0.0190538
-0.00281202
0.021601
-0.00260456
0.0239817
-0.00242801
0.0262831
-0.00231245
0.0285153
-0.00220613
0.0306535
-0.00207243
0.0326705
-0.00193902
0.0345717
-0.00181922
0.0363642
-0.00171776
0.0380417
-0.00162113
0.0396111
-0.00152911
0.0410762
-0.00143619
0.0424521
-0.00134687
0.0437447
-0.00125824
0.0449574
-0.00117394
0.0460914
-0.00109094
0.0471442
-0.00101274
0.048117
-0.000935942
0.0490093
-0.000864242
0.0498235
-0.000793923
0.0505628
-0.000728681
0.0512305
-0.000664719
0.0518319
-0.000605528
0.0523705
-0.000547521
0.0528502
-0.000494028
0.0532743
-0.000441813
0.0536441
-0.000394035
0.0539628
-0.000347515
0.0542311
-0.000305228
0.0544529
-0.000264551
0.05463
-0.000228009
0.0547662
-0.000193073
0.054864
-0.00016136
0.0549263
-0.000130679
0.0549557
-0.000102173
0.0549569
-7.63173e-05
0.0549323
-5.29188e-05
0.0548854
-3.0302e-05
0.0548154
-8.89099e-06
0.0547316
7.62277e-06
0.0546361
2.03522e-05
0.0545295
3.41305e-05
0.0544102
4.74592e-05
0.0542807
6.0139e-05
0.0541392
7.23681e-05
0.0539868
8.48209e-05
0.0538208
9.88765e-05
0.053637
0.000117131
0.0534307
0.000139663
0.000184488
0.0627685
0.0604317
0.0482664
0.0306193
0.0410768
0.0140583
0.0382851
0.00553449
0.037209
0.00122655
0.036288
-0.000996833
0.035633
-0.00154917
0.0360151
-0.00160834
0.0368274
-0.00123358
0.037569
-0.000698924
0.0380998
-0.000321926
0.0383055
-9.98338e-05
0.038317
-1.04658e-05
0.0382213
-1.84879e-05
0.0381497
-7.20473e-05
0.0381349
-0.000109865
0.0381684
-0.000120913
0.0382235
-0.000112057
0.038272
-8.78603e-05
0.0383115
-6.79759e-05
0.0383274
-4.70356e-05
0.0383182
-3.15252e-05
0.0382926
-2.40724e-05
0.0382652
-2.55232e-05
0.0382447
-2.90923e-05
0.0382284
-3.1232e-05
0.0382123
-3.02105e-05
0.0381916
-2.2819e-05
0.038156
-9.25239e-07
0.038104
1.8066e-05
0.0380343
4.95997e-05
0.0379291
0.000112672
0.0377241
0.000254259
0.0372873
0.00058322
0.0363329
0.0013549
0.0343638
0.00329421
0.0299052
0.00882183
0.0211627
0.0185077
0.0150406
0.0128938
0.0114119
0.00687518
0.0101593
0.00195545
0.0110679
-0.00243362
0.0135806
-0.00575969
0.0169344
-0.00745137