/*--------------------------------*- C++ -*----------------------------------*\
  =========                 |
  \\      /  F ield         | OpenFOAM: The Open Source CFD Toolbox
   \\    /   O peration     | Website:  https://openfoam.org
    \\  /    A nd           | Version:  13
     \\/     M anipulation  |
\*---------------------------------------------------------------------------*/
FoamFile
{
    format      ascii;
    class       volVectorField;
    location    "2.5";
    object      U;
}
// * * * * * * * * * * * * * * * * * * * * * * * * * * * * * * * * * * * * * //

dimensions      [0 1 -1 0 0 0 0];

internalField   nonuniform List<vector> 
5250
(
(3 1.91967e-08 0)
(2.99999 3.06586e-08 0)
(2.99997 3.30979e-07 0)
(2.99992 3.45298e-07 0)
(2.9998 2.43153e-06 0)
(2.99951 2.99839e-06 0)
(2.9988 1.56014e-05 0)
(2.99701 2.14055e-05 0)
(2.9926 9.28504e-05 0)
(2.9815 0.000158507 0)
(2.95282 0.000516837 0)
(2.87435 0.00120208 0)
(2.64723 0.00344695 0)
(1.96897 0.00979225 0)
(0.908833 0.0276248 0)
(0.391187 0.0253998 0)
(0.522321 0.0250625 0)
(0.557396 0.0266479 0)
(0.497666 0.028319 0)
(0.402927 0.0301014 0)
(0.319226 0.031781 0)
(0.253447 0.0336027 0)
(0.187461 0.035952 0)
(0.112582 0.0394494 0)
(0.0520086 0.0450564 0)
(3 3.65553e-08 0)
(2.99999 2.2145e-07 0)
(2.99997 7.85341e-07 0)
(2.99992 2.18281e-06 0)
(2.99981 5.8778e-06 0)
(2.99952 1.46766e-05 0)
(2.99881 3.75246e-05 0)
(2.99708 9.2133e-05 0)
(2.99272 0.000232347 0)
(2.98186 0.000575521 0)
(2.95369 0.00146231 0)
(2.87679 0.00381386 0)
(2.65432 0.0105242 0)
(1.98853 0.0303535 0)
(0.920723 0.0841954 0)
(0.389572 0.0735286 0)
(0.524212 0.0688777 0)
(0.56116 0.0710454 0)
(0.502313 0.0737346 0)
(0.408592 0.0769863 0)
(0.325033 0.0794994 0)
(0.258205 0.0819299 0)
(0.190093 0.0848752 0)
(0.112174 0.0887147 0)
(0.0494707 0.0933188 0)
(3 4.69561e-08 0)
(2.99999 4.1844e-07 0)
(2.99997 1.18934e-06 0)
(2.99992 4.035e-06 0)
(2.99981 8.9932e-06 0)
(2.99954 2.6706e-05 0)
(2.99886 5.54655e-05 0)
(2.99717 0.000168431 0)
(2.99301 0.000341911 0)
(2.98253 0.00101331 0)
(2.95552 0.00229863 0)
(2.88192 0.00637563 0)
(2.66944 0.0172555 0)
(2.03228 0.0504581 0)
(0.95021 0.141939 0)
(0.393275 0.124122 0)
(0.532809 0.114787 0)
(0.573256 0.118453 0)
(0.515895 0.123662 0)
(0.423347 0.130599 0)
(0.339176 0.1361 0)
(0.270448 0.141652 0)
(0.199379 0.148137 0)
(0.117573 0.155274 0)
(0.0505509 0.161498 0)
(3 7.04133e-08 0)
(2.99999 4.73893e-07 0)
(2.99997 1.58568e-06 0)
(2.99993 4.67258e-06 0)
(2.99983 1.1927e-05 0)
(2.99956 3.16796e-05 0)
(2.99893 7.5619e-05 0)
(2.99732 0.000201311 0)
(2.99342 0.000471317 0)
(2.98349 0.00125328 0)
(2.95815 0.00306285 0)
(2.88935 0.00821282 0)
(2.69129 0.0226052 0)
(2.09779 0.0661924 0)
(0.997451 0.191233 0)
(0.406918 0.174652 0)
(0.550282 0.162034 0)
(0.595471 0.166358 0)
(0.540042 0.17343 0)
(0.448277 0.184167 0)
(0.361999 0.193733 0)
(0.289963 0.203792 0)
(0.214669 0.215064 0)
(0.127475 0.226418 0)
(0.0541014 0.234646 0)
(3 8.08562e-08 0)
(2.99999 4.99426e-07 0)
(2.99997 1.72555e-06 0)
(2.99993 4.93399e-06 0)
(2.99984 1.29706e-05 0)
(2.99959 3.29455e-05 0)
(2.999 8.47008e-05 0)
(2.9975 0.000206413 0)
(2.99388 0.000536247 0)
(2.98469 0.00131075 0)
(2.96132 0.00340011 0)
(2.8983 0.00883115 0)
(2.71829 0.0245418 0)
(2.18092 0.0716732 0)
(1.06899 0.212241 0)
(0.444368 0.215535 0)
(0.580217 0.208431 0)
(0.62686 0.214379 0)
(0.571863 0.223442 0)
(0.479862 0.238141 0)
(0.39033 0.252857 0)
(0.314281 0.268311 0)
(0.234328 0.28509 0)
(0.140762 0.301548 0)
(0.0594815 0.312758 0)
(3 8.42158e-08 0)
(2.99999 4.72213e-07 0)
(2.99998 1.83516e-06 0)
(2.99994 4.58522e-06 0)
(2.99985 1.37062e-05 0)
(2.99962 3.10164e-05 0)
(2.99908 8.59101e-05 0)
(2.99769 0.00019808 0)
(2.99434 0.000520789 0)
(2.98588 0.00125787 0)
(2.96443 0.0032204 0)
(2.90702 0.00829015 0)
(2.74435 0.0226376 0)
(2.26159 0.0652458 0)
(1.14966 0.194398 0)
(0.481425 0.248334 0)
(0.601784 0.259015 0)
(0.64864 0.264922 0)
(0.596805 0.274782 0)
(0.508338 0.293857 0)
(0.418539 0.314825 0)
(0.340445 0.3367 0)
(0.257276 0.36023 0)
(0.157662 0.383636 0)
(0.0672139 0.400082 0)
(3 7.94727e-08 0)
(2.99999 4.79136e-07 0)
(2.99998 1.73698e-06 0)
(2.99994 4.67106e-06 0)
(2.99986 1.29451e-05 0)
(2.99965 3.14911e-05 0)
(2.99914 8.08934e-05 0)
(2.99787 0.000197293 0)
(2.99477 0.000489144 0)
(2.98695 0.00121547 0)
(2.96717 0.00301189 0)
(2.91455 0.00775579 0)
(2.76582 0.0207444 0)
(2.32537 0.0587136 0)
(1.23784 0.17377 0)
(0.521618 0.288831 0)
(0.610965 0.319473 0)
(0.654757 0.316687 0)
(0.612805 0.324831 0)
(0.533457 0.349136 0)
(0.446753 0.377815 0)
(0.369189 0.407783 0)
(0.284978 0.440572 0)
(0.180122 0.474686 0)
(0.0786809 0.501506 0)
(3 7.63512e-08 0)
(2.99999 5.16009e-07 0)
(2.99998 1.64099e-06 0)
(2.99995 5.06448e-06 0)
(2.99987 1.22085e-05 0)
(2.99968 3.31873e-05 0)
(2.99921 7.86254e-05 0)
(2.99803 0.00020157 0)
(2.99519 0.000491783 0)
(2.98798 0.00122234 0)
(2.96988 0.00305513 0)
(2.92182 0.00779168 0)
(2.78665 0.0208038 0)
(2.38781 0.0584867 0)
(1.34839 0.173105 0)
(0.592703 0.336473 0)
(0.619172 0.368638 0)
(0.648999 0.363023 0)
(0.625373 0.374632 0)
(0.559684 0.402176 0)
(0.478139 0.439668 0)
(0.403192 0.480003 0)
(0.320884 0.525589 0)
(0.213122 0.576275 0)
(0.097918 0.624926 0)
(3 9.48428e-08 0)
(2.99999 4.82611e-07 0)
(2.99998 1.93724e-06 0)
(2.99995 4.71859e-06 0)
(2.99988 1.42401e-05 0)
(2.99971 3.12751e-05 0)
(2.99928 9.02913e-05 0)
(2.99821 0.000193177 0)
(2.99562 0.000551403 0)
(2.98908 0.0012136 0)
(2.97266 0.00330041 0)
(2.9293 0.00800435 0)
(2.80814 0.0217188 0)
(2.45193 0.060495 0)
(1.48231 0.178112 0)
(0.682119 0.385915 0)
(0.626426 0.40378 0)
(0.651118 0.403593 0)
(0.640749 0.423433 0)
(0.588182 0.453406 0)
(0.516324 0.499221 0)
(0.4466 0.552036 0)
(0.370109 0.613241 0)
(0.26624 0.690515 0)
(0.133628 0.784462 0)
(3 9.47076e-08 0)
(2.99999 5.31016e-07 0)
(2.99998 1.99387e-06 0)
(2.99996 5.1762e-06 0)
(2.99989 1.48009e-05 0)
(2.99974 3.45434e-05 0)
(2.99935 9.38355e-05 0)
(2.99842 0.000213648 0)
(2.99604 0.000574212 0)
(2.99027 0.00131752 0)
(2.97553 0.00346215 0)
(2.93716 0.00850137 0)
(2.83042 0.0227683 0)
(2.51836 0.0632797 0)
(1.63754 0.184882 0)
(0.787667 0.436804 0)
(0.633944 0.440833 0)
(0.661485 0.44184 0)
(0.662426 0.466995 0)
(0.621334 0.502403 0)
(0.562824 0.554823 0)
(0.502368 0.61954 0)
(0.440435 0.702619 0)
(0.357749 0.82595 0)
(0.202748 1.04264 0)
(3 8.88267e-08 0)
(2.99999 5.86312e-07 0)
(2.99999 1.97952e-06 0)
(2.99996 5.7312e-06 0)
(2.99991 1.47496e-05 0)
(2.99977 3.83892e-05 0)
(2.99943 9.29135e-05 0)
(2.99861 0.000239006 0)
(2.99654 0.000569381 0)
(2.99149 0.00146138 0)
(2.97864 0.00353418 0)
(2.94539 0.0091072 0)
(2.85382 0.0236989 0)
(2.58743 0.0661558 0)
(1.81505 0.191739 0)
(0.912004 0.486513 0)
(0.645438 0.4803 0)
(0.678908 0.479367 0)
(0.692361 0.504262 0)
(0.661891 0.545527 0)
(0.617291 0.602715 0)
(0.575072 0.67767 0)
(0.547098 0.781106 0)
(0.549349 0.936776 0)
(0.595762 1.19429 0)
(3 9.32762e-08 0)
(3 5.80189e-07 0)
(2.99999 2.05809e-06 0)
(2.99997 5.67325e-06 0)
(2.99992 1.53535e-05 0)
(2.99981 3.80408e-05 0)
(2.99952 9.64819e-05 0)
(2.99881 0.000238867 0)
(2.99706 0.000587284 0)
(2.99275 0.00148629 0)
(2.9819 0.00364489 0)
(2.95399 0.00933165 0)
(2.87797 0.0242961 0)
(2.65921 0.0674119 0)
(2.01232 0.195563 0)
(1.05958 0.528466 0)
(0.673031 0.525336 0)
(0.70752 0.522951 0)
(0.731502 0.539327 0)
(0.711591 0.581983 0)
(0.680676 0.641849 0)
(0.660091 0.723096 0)
(0.667737 0.83449 0)
(0.732648 0.987611 0)
(0.892212 1.18664 0)
(3 8.76077e-08 0)
(3 5.56581e-07 0)
(2.99999 1.89824e-06 0)
(2.99997 5.45288e-06 0)
(2.99993 1.42067e-05 0)
(2.99984 3.61802e-05 0)
(2.9996 9.06334e-05 0)
(2.99902 0.000224302 0)
(2.99758 0.000560807 0)
(2.99404 0.00137951 0)
(2.98518 0.00347492 0)
(2.96263 0.00868953 0)
(2.90227 0.0227176 0)
(2.73147 0.0620676 0)
(2.2267 0.179867 0)
(1.24897 0.516177 0)
(0.745684 0.563785 0)
(0.758208 0.574253 0)
(0.782678 0.578774 0)
(0.773214 0.616004 0)
(0.753137 0.674773 0)
(0.750769 0.75438 0)
(0.782969 0.85898 0)
(0.874003 0.987268 0)
(1.05578 1.11468 0)
(3 7.34424e-08 0)
(3 4.90207e-07 0)
(2.99999 1.59269e-06 0)
(2.99998 4.7853e-06 0)
(2.99995 1.18457e-05 0)
(2.99987 3.14635e-05 0)
(2.99967 7.54445e-05 0)
(2.99921 0.000192944 0)
(2.99802 0.00046803 0)
(2.99517 0.00116549 0)
(2.988 0.00288846 0)
(2.97002 0.00717661 0)
(2.92258 0.0184421 0)
(2.79065 0.0492874 0)
(2.4066 0.140212 0)
(1.46253 0.419095 0)
(0.843454 0.590709 0)
(0.812422 0.620628 0)
(0.83084 0.626253 0)
(0.837145 0.652483 0)
(0.828453 0.704078 0)
(0.837879 0.774626 0)
(0.883075 0.862439 0)
(0.979454 0.961458 0)
(1.15071 1.04375 0)
(3 5.99755e-08 0)
(3 4.23062e-07 0)
(2.99999 1.33345e-06 0)
(2.99998 4.12128e-06 0)
(2.99996 9.91679e-06 0)
(2.99989 2.70292e-05 0)
(2.99973 6.24526e-05 0)
(2.99935 0.000165007 0)
(2.99839 0.00038257 0)
(2.99605 0.000988979 0)
(2.99019 0.00234524 0)
(2.97557 0.0059492 0)
(2.93735 0.0148061 0)
(2.83183 0.0390734 0)
(2.52658 0.108124 0)
(1.68768 0.320506 0)
(0.956553 0.630998 0)
(0.847248 0.661796 0)
(0.864896 0.673243 0)
(0.886726 0.688097 0)
(0.895282 0.729353 0)
(0.915014 0.788086 0)
(0.96624 0.857909 0)
(1.05993 0.931611 0)
(1.21227 0.987941 0)
(3 5.74884e-08 0)
(3 3.48268e-07 0)
(2.99999 1.2379e-06 0)
(2.99999 3.41037e-06 0)
(2.99996 9.16404e-06 0)
(2.99991 2.26814e-05 0)
(2.99979 5.75387e-05 0)
(2.99947 0.000139881 0)
(2.99871 0.000349801 0)
(2.99681 0.000854081 0)
(2.99213 0.00212232 0)
(2.98039 0.00524337 0)
(2.95013 0.0132426 0)
(2.86756 0.0344839 0)
(2.63039 0.0950399 0)
(1.94331 0.276734 0)
(1.11859 0.666648 0)
(0.880229 0.695199 0)
(0.892371 0.708311 0)
(0.924446 0.71561 0)
(0.951253 0.747656 0)
(0.980719 0.796155 0)
(1.0346 0.851439 0)
(1.12295 0.906163 0)
(1.2562 0.945987 0)
(3 5.16368e-08 0)
(3 2.96822e-07 0)
(3 1.09791e-06 0)
(2.99999 2.90995e-06 0)
(2.99997 8.1435e-06 0)
(2.99993 1.94641e-05 0)
(2.99983 5.13073e-05 0)
(2.99959 0.00012088 0)
(2.99898 0.000313309 0)
(2.99753 0.000745635 0)
(2.99385 0.00190649 0)
(2.98485 0.00463781 0)
(2.96168 0.0118418 0)
(2.8999 0.030495 0)
(2.72516 0.0835875 0)
(2.20942 0.241603 0)
(1.33147 0.657218 0)
(0.946669 0.722072 0)
(0.933818 0.735557 0)
(0.96301 0.740623 0)
(1.00229 0.761351 0)
(1.03885 0.800269 0)
(1.09249 0.844616 0)
(1.17401 0.886008 0)
(1.29018 0.914791 0)
(3 4.01639e-08 0)
(3 2.51326e-07 0)
(3 8.80628e-07 0)
(2.99999 2.454e-06 0)
(2.99998 6.52333e-06 0)
(2.99995 1.64043e-05 0)
(2.99987 4.07275e-05 0)
(2.99969 0.000101885 0)
(2.99923 0.000246977 0)
(2.99814 0.00062255 0)
(2.99537 0.00150106 0)
(2.98868 0.00379737 0)
(2.97166 0.00932918 0)
(2.92743 0.0240599 0)
(2.80557 0.0641385 0)
(2.45277 0.182612 0)
(1.60307 0.536889 0)
(1.06095 0.730577 0)
(0.994077 0.758496 0)
(1.00916 0.770235 0)
(1.05046 0.779197 0)
(1.09261 0.806001 0)
(1.14422 0.839974 0)
(1.21796 0.871271 0)
(1.319 0.892143 0)
(3 3.11545e-08 0)
(3 2.04326e-07 0)
(3 6.82246e-07 0)
(2.99999 1.98864e-06 0)
(2.99998 5.05599e-06 0)
(2.99996 1.30836e-05 0)
(2.9999 3.17389e-05 0)
(2.99976 7.98549e-05 0)
(2.99942 0.000192536 0)
(2.99857 0.000479749 0)
(2.99649 0.00116218 0)
(2.99137 0.00288131 0)
(2.97855 0.00707764 0)
(2.94547 0.017797 0)
(2.85537 0.0463115 0)
(2.59771 0.12722 0)
(1.8813 0.378122 0)
(1.19575 0.741666 0)
(1.0419 0.781954 0)
(1.04692 0.800142 0)
(1.08732 0.802241 0)
(1.13682 0.814907 0)
(1.18884 0.838591 0)
(1.25621 0.861704 0)
(1.34472 0.87649 0)
(3 2.44541e-08 0)
(3 1.67324e-07 0)
(3 5.40661e-07 0)
(3 1.62942e-06 0)
(2.99999 4.033e-06 0)
(2.99997 1.06995e-05 0)
(2.99993 2.54644e-05 0)
(2.99982 6.54365e-05 0)
(2.99956 0.000155782 0)
(2.99895 0.000394293 0)
(2.99737 0.000950522 0)
(2.99361 0.00237909 0)
(2.98408 0.00583167 0)
(2.95997 0.0147126 0)
(2.89534 0.0379 0)
(2.71277 0.103305 0)
(2.1774 0.300382 0)
(1.39431 0.74475 0)
(1.10105 0.811152 0)
(1.08703 0.825085 0)
(1.11806 0.825033 0)
(1.17199 0.825551 0)
(1.22752 0.839817 0)
(1.29023 0.856169 0)
(1.36836 0.866245 0)
(3 1.96239e-08 0)
(3 1.25674e-07 0)
(3 4.32621e-07 0)
(3 1.22403e-06 0)
(2.99999 3.20779e-06 0)
(2.99998 8.13842e-06 0)
(2.99995 1.9967e-05 0)
(2.99987 5.03786e-05 0)
(2.99969 0.00012042 0)
(2.99924 0.000306661 0)
(2.99815 0.000726594 0)
(2.99544 0.0018584 0)
(2.98883 0.0044429 0)
(2.97216 0.0113294 0)
(2.92899 0.0285199 0)
(2.81102 0.0767119 0)
(2.46938 0.218251 0)
(1.68406 0.618729 0)
(1.21614 0.811401 0)
(1.14617 0.838686 0)
(1.15826 0.846874 0)
(1.20686 0.841493 0)
(1.264 0.845603 0)
(1.32248 0.854807 0)
(1.39161 0.86055 0)
(3 1.5151e-08 0)
(3 9.26669e-08 0)
(3 3.26443e-07 0)
(3 9.02883e-07 0)
(2.99999 2.41123e-06 0)
(2.99998 5.95765e-06 0)
(2.99996 1.50301e-05 0)
(2.99991 3.64179e-05 0)
(2.99978 9.02907e-05 0)
(2.99945 0.000219404 0)
(2.99867 0.000538777 0)
(2.9967 0.00131637 0)
(2.99196 0.00322592 0)
(2.98002 0.00794971 0)
(2.94957 0.0198628 0)
(2.86747 0.0514735 0)
(2.63429 0.140797 0)
(1.98948 0.416106 0)
(1.35844 0.800167 0)
(1.19867 0.85326 0)
(1.19539 0.870511 0)
(1.23507 0.865351 0)
(1.2939 0.85744 0)
(1.35136 0.857945 0)
(1.41416 0.859176 0)
(3 1.08787e-08 0)
(3 7.12919e-08 0)
(3 2.37147e-07 0)
(3 6.94664e-07 0)
(3 1.75594e-06 0)
(2.99999 4.56087e-06 0)
(2.99997 1.10438e-05 0)
(2.99993 2.77236e-05 0)
(2.99984 6.72544e-05 0)
(2.99961 0.000165802 0)
(2.99906 0.000407051 0)
(2.99768 0.000991794 0)
(2.99435 0.00246411 0)
(2.986 0.00601793 0)
(2.96507 0.0150952 0)
(2.90965 0.038567 0)
(2.75579 0.103858 0)
(2.30575 0.300562 0)
(1.58474 0.747604 0)
(1.27615 0.863999 0)
(1.24124 0.886612 0)
(1.26252 0.888288 0)
(1.31634 0.874585 0)
(1.3761 0.866478 0)
(1.43582 0.862624 0)
(3 8.31795e-09 0)
(3 5.07919e-08 0)
(3 1.79133e-07 0)
(3 4.94581e-07 0)
(3 1.31957e-06 0)
(2.99999 3.26075e-06 0)
(2.99998 8.23796e-06 0)
(2.99996 1.99366e-05 0)
(2.99989 4.97477e-05 0)
(2.99973 0.00011993 0)
(2.99936 0.000298443 0)
(2.99842 0.000721194 0)
(2.99615 0.00179043 0)
(2.99054 0.00436825 0)
(2.97666 0.0108563 0)
(2.94084 0.0273936 0)
(2.84456 0.0720624 0)
(2.56804 0.202531 0)
(1.88954 0.575869 0)
(1.40237 0.852236 0)
(1.29943 0.892846 0)
(1.29949 0.906572 0)
(1.34005 0.895207 0)
(1.39837 0.878469 0)
(1.4563 0.869515 0)
(3 6.06987e-09 0)
(3 3.61301e-08 0)
(3 1.29326e-07 0)
(3 3.51869e-07 0)
(3 9.52895e-07 0)
(2.99999 2.31434e-06 0)
(2.99999 5.94882e-06 0)
(2.99997 1.4084e-05 0)
(2.99993 3.57641e-05 0)
(2.99982 8.46936e-05 0)
(2.99956 0.000212895 0)
(2.99892 0.000508583 0)
(2.99739 0.00126752 0)
(2.99355 0.00306308 0)
(2.98422 0.00761664 0)
(2.96038 0.018829 0)
(2.89751 0.0485315 0)
(2.72195 0.130934 0)
(2.2198 0.382586 0)
(1.58742 0.820282 0)
(1.36305 0.90472 0)
(1.3393 0.92152 0)
(1.36096 0.916095 0)
(1.41484 0.895373 0)
(1.47469 0.879605 0)
(3 4.1167e-09 0)
(3 2.60622e-08 0)
(3 8.87701e-08 0)
(3 2.53298e-07 0)
(3 6.5627e-07 0)
(3 1.6543e-06 0)
(2.99999 4.11868e-06 0)
(2.99998 1.00006e-05 0)
(2.99995 2.48924e-05 0)
(2.99988 5.9574e-05 0)
(2.99971 0.000149043 0)
(2.9993 0.000354774 0)
(2.99828 0.000889934 0)
(2.99583 0.00212404 0)
(2.98978 0.00533238 0)
(2.97483 0.0129614 0)
(2.93631 0.0331211 0)
(2.83314 0.0869608 0)
(2.53459 0.247825 0)
(1.87834 0.660118 0)
(1.47617 0.883691 0)
(1.39594 0.920025 0)
(1.39527 0.930287 0)
(1.43464 0.915292 0)
(1.49161 0.890466 0)
(3 2.73381e-09 0)
(3 1.79884e-08 0)
(3 6.02386e-08 0)
(3 1.74421e-07 0)
(3 4.44542e-07 0)
(3 1.1437e-06 0)
(2.99999 2.75294e-06 0)
(2.99999 6.95786e-06 0)
(2.99997 1.64696e-05 0)
(2.99992 4.14755e-05 0)
(2.99981 9.80362e-05 0)
(2.99954 0.000245324 0)
(2.99886 0.000583762 0)
(2.99725 0.00145155 0)
(2.99325 0.00348531 0)
(2.98348 0.00865797 0)
(2.95863 0.0212863 0)
(2.89315 0.0548554 0)
(2.71044 0.147827 0)
(2.2022 0.426561 0)
(1.63646 0.84729 0)
(1.45428 0.924282 0)
(1.43269 0.940598 0)
(1.45174 0.934156 0)
(1.50228 0.907693 0)
(3 1.94847e-09 0)
(3 1.176e-08 0)
(3 4.17543e-08 0)
(3 1.14267e-07 0)
(3 3.06865e-07 0)
(3 7.51388e-07 0)
(3 1.90081e-06 0)
(2.99999 4.55903e-06 0)
(2.99998 1.13561e-05 0)
(2.99995 2.72256e-05 0)
(2.99988 6.7254e-05 0)
(2.9997 0.000162132 0)
(2.99929 0.000397635 0)
(2.99825 0.000966996 0)
(2.99578 0.00235873 0)
(2.98964 0.00578831 0)
(2.9746 0.0142539 0)
(2.93587 0.0359725 0)
(2.83257 0.0947466 0)
(2.53414 0.269576 0)
(1.91467 0.690838 0)
(1.55716 0.897112 0)
(1.48579 0.934739 0)
(1.48286 0.944181 0)
(1.51792 0.928431 0)
(3 1.27062e-09 0)
(3 7.89125e-09 0)
(3 2.71689e-08 0)
(3 7.65768e-08 0)
(3 1.99568e-07 0)
(3 4.98442e-07 0)
(3 1.24312e-06 0)
(2.99999 2.98948e-06 0)
(2.99999 7.45481e-06 0)
(2.99997 1.76461e-05 0)
(2.99992 4.41862e-05 0)
(2.99981 0.000104099 0)
(2.99954 0.000260579 0)
(2.99889 0.000615238 0)
(2.99726 0.00153506 0)
(2.99339 0.00365981 0)
(2.9837 0.00910489 0)
(2.95949 0.0222804 0)
(2.89571 0.0572375 0)
(2.71833 0.15391 0)
(2.23353 0.437669 0)
(1.70909 0.84929 0)
(1.54139 0.932044 0)
(1.51792 0.950282 0)
(1.53347 0.946093 0)
(3 8.11362e-10 0)
(3 5.24115e-09 0)
(3 1.77619e-08 0)
(3 5.07258e-08 0)
(3 1.30569e-07 0)
(3 3.30645e-07 0)
(3 8.05588e-07 0)
(3 1.99849e-06 0)
(2.99999 4.7851e-06 0)
(2.99998 1.1859e-05 0)
(2.99995 2.82259e-05 0)
(2.99988 6.9989e-05 0)
(2.99971 0.000166628 0)
(2.99931 0.000412054 0)
(2.99831 0.000986669 0)
(2.99594 0.00243107 0)
(2.99008 0.00589285 0)
(2.97573 0.0145427 0)
(2.939 0.0365161 0)
(2.84159 0.0956493 0)
(2.56115 0.270706 0)
(1.98301 0.685522 0)
(1.64153 0.900677 0)
(1.56848 0.94368 0)
(1.56285 0.954637 0)
(3 5.28873e-10 0)
(3 3.32321e-09 0)
(3 1.15061e-08 0)
(3 3.21506e-08 0)
(3 8.43329e-08 0)
(3 2.10101e-07 0)
(3 5.17625e-07 0)
(3 1.26908e-06 0)
(2.99999 3.05903e-06 0)
(2.99999 7.51324e-06 0)
(2.99997 1.79573e-05 0)
(2.99993 4.42332e-05 0)
(2.99982 0.000105275 0)
(2.99957 0.000259578 0)
(2.99894 0.000618552 0)
(2.99747 0.00152248 0)
(2.99378 0.00364945 0)
(2.98492 0.00899475 0)
(2.96245 0.0220032 0)
(2.90415 0.0561337 0)
(2.74305 0.150036 0)
(2.30306 0.423294 0)
(1.80173 0.832696 0)
(1.62606 0.933784 0)
(1.59725 0.956924 0)
(3 3.41371e-10 0)
(3 2.10229e-09 0)
(3 7.33972e-09 0)
(3 2.03554e-08 0)
(3 5.37824e-08 0)
(3 1.32822e-07 0)
(3 3.30966e-07 0)
(3 7.99209e-07 0)
(3 1.96028e-06 0)
(2.99999 4.73155e-06 0)
(2.99998 1.15081e-05 0)
(2.99996 2.78692e-05 0)
(2.99989 6.73975e-05 0)
(2.99974 0.00016443 0)
(2.99937 0.000394528 0)
(2.99847 0.000969455 0)
(2.9963 0.00232479 0)
(2.99099 0.00573259 0)
(2.97802 0.0139474 0)
(2.94509 0.0349931 0)
(2.85825 0.0909282 0)
(2.61043 0.254298 0)
(2.07916 0.650383 0)
(1.73258 0.898111 0)
(1.64831 0.950757 0)
(3 2.04752e-10 0)
(3 1.35112e-09 0)
(3 4.48913e-09 0)
(3 1.30686e-08 0)
(3 3.29295e-08 0)
(3 8.48661e-08 0)
(3 2.02379e-07 0)
(3 5.08518e-07 0)
(3 1.19914e-06 0)
(3 2.98543e-06 0)
(2.99999 7.05313e-06 0)
(2.99997 1.74251e-05 0)
(2.99993 4.14395e-05 0)
(2.99984 0.000101379 0)
(2.99961 0.000243408 0)
(2.99908 0.000589929 0)
(2.99775 0.00143014 0)
(2.9946 0.00344693 0)
(2.98677 0.0084417 0)
(2.96749 0.020608 0)
(2.91758 0.0521486 0)
(2.78181 0.138063 0)
(2.40732 0.38807 0)
(1.91861 0.797235 0)
(1.71327 0.930514 0)
(3 1.32847e-10 0)
(3 8.10345e-10 0)
(3 2.86198e-09 0)
(3 7.84306e-09 0)
(3 2.08949e-08 0)
(3 5.12174e-08 0)
(3 1.27807e-07 0)
(3 3.08535e-07 0)
(3 7.51976e-07 0)
(3 1.82422e-06 0)
(2.99999 4.38209e-06 0)
(2.99998 1.07463e-05 0)
(2.99996 2.55063e-05 0)
(2.99991 6.30853e-05 0)
(2.99977 0.000148865 0)
(2.99946 0.000369535 0)
(2.99868 0.000871848 0)
(2.99683 0.0021646 0)
(2.9923 0.00515307 0)
(2.98126 0.0127969 0)
(2.95348 0.0313993 0)
(2.88094 0.0812475 0)
(2.6766 0.222874 0)
(2.20539 0.583014 0)
(1.83486 0.886502 0)
(3 8.0953e-11 0)
(3 4.95852e-10 0)
(3 1.72729e-09 0)
(3 4.79286e-09 0)
(3 1.26254e-08 0)
(3 3.09995e-08 0)
(3 7.77401e-08 0)
(3 1.84699e-07 0)
(3 4.60022e-07 0)
(3 1.08219e-06 0)
(3 2.68802e-06 0)
(2.99999 6.33038e-06 0)
(2.99998 1.56243e-05 0)
(2.99995 3.70347e-05 0)
(2.99987 9.06597e-05 0)
(2.99968 0.000216804 0)
(2.99925 0.000525502 0)
(2.99816 0.00127052 0)
(2.99562 0.00306011 0)
(2.9893 0.00747494 0)
(2.974 0.0181741 0)
(2.93496 0.0456651 0)
(2.83119 0.119323 0)
(2.54084 0.334068 0)
(2.06294 0.735702 0)
(3 4.6114e-11 0)
(3 3.03847e-10 0)
(3 1.00628e-09 0)
(3 2.93095e-09 0)
(3 7.37513e-09 0)
(3 1.89094e-08 0)
(3 4.52868e-08 0)
(3 1.12404e-07 0)
(3 2.67485e-07 0)
(3 6.54077e-07 0)
(3 1.56692e-06 0)
(2.99999 3.7856e-06 0)
(2.99999 9.15281e-06 0)
(2.99997 2.18629e-05 0)
(2.99992 5.34068e-05 0)
(2.99982 0.000126326 0)
(2.99956 0.000310719 0)
(2.99894 0.000731839 0)
(2.99746 0.00180625 0)
(2.99383 0.00426974 0)
(2.98511 0.0105567 0)
(2.96326 0.0255514 0)
(2.9072 0.0650928 0)
(2.75299 0.173907 0)
(2.36307 0.466524 0)
(3 2.79549e-11 0)
(3 1.76481e-10 0)
(3 6.07831e-10 0)
(3 1.70258e-09 0)
(3 4.43397e-09 0)
(3 1.10547e-08 0)
(3 2.69885e-08 0)
(3 6.6105e-08 0)
(3 1.57872e-07 0)
(3 3.86788e-07 0)
(3 9.17487e-07 0)
(3 2.24687e-06 0)
(2.99999 5.3288e-06 0)
(2.99998 1.30165e-05 0)
(2.99996 3.09621e-05 0)
(2.9999 7.53122e-05 0)
(2.99975 0.000180012 0)
(2.99941 0.000435546 0)
(2.99857 0.00104809 0)
(2.99659 0.00252637 0)
(2.9917 0.00613161 0)
(2.97998 0.0148995 0)
(2.95044 0.0369329 0)
(2.87366 0.0950021 0)
(2.65891 0.260826 0)
(3 1.6786e-11 0)
(3 1.01341e-10 0)
(3 3.57621e-10 0)
(3 9.78491e-10 0)
(3 2.60227e-09 0)
(3 6.32271e-09 0)
(3 1.58935e-08 0)
(3 3.7541e-08 0)
(3 9.3019e-08 0)
(3 2.19075e-07 0)
(3 5.37727e-07 0)
(3 1.273e-06 0)
(3 3.09686e-06 0)
(2.99999 7.39327e-06 0)
(2.99998 1.77937e-05 0)
(2.99994 4.29043e-05 0)
(2.99986 0.000102121 0)
(2.99966 0.000248859 0)
(2.99921 0.000586658 0)
(2.99807 0.00144071 0)
(2.99541 0.00339215 0)
(2.98883 0.00835879 0)
(2.97291 0.0200362 0)
(2.93243 0.0503469 0)
(2.82462 0.130862 0)
(3 9.19557e-12 0)
(3 6.02367e-11 0)
(3 2.0026e-10 0)
(3 5.80297e-10 0)
(3 1.4608e-09 0)
(3 3.73547e-09 0)
(3 8.90204e-09 0)
(3 2.2122e-08 0)
(3 5.22126e-08 0)
(3 1.28148e-07 0)
(3 3.03337e-07 0)
(3 7.37356e-07 0)
(3 1.75958e-06 0)
(2.99999 4.23216e-06 0)
(2.99999 1.01925e-05 0)
(2.99997 2.42636e-05 0)
(2.99992 5.90543e-05 0)
(2.99981 0.000139142 0)
(2.99956 0.000341237 0)
(2.99893 0.000800757 0)
(2.99746 0.00196995 0)
(2.99382 0.00464349 0)
(2.98518 0.0114382 0)
(2.96352 0.0276408 0)
(2.90853 0.070145 0)
(3 5.23957e-12 0)
(3 3.42588e-11 0)
(3 1.14638e-10 0)
(3 3.29983e-10 0)
(3 8.35151e-10 0)
(3 2.12706e-09 0)
(3 5.07782e-09 0)
(3 1.26013e-08 0)
(3 2.96856e-08 0)
(3 7.2864e-08 0)
(3 1.72209e-07 0)
(3 4.18792e-07 0)
(3 9.96505e-07 0)
(3 2.4002e-06 0)
(2.99999 5.76618e-06 0)
(2.99998 1.37352e-05 0)
(2.99996 3.33685e-05 0)
(2.9999 7.86211e-05 0)
(2.99976 0.000192539 0)
(2.99943 0.000451322 0)
(2.99861 0.00111013 0)
(2.99671 0.00260386 0)
(2.99203 0.00641695 0)
(2.98087 0.0152966 0)
(2.95292 0.0381481 0)
(3 3.08435e-12 0)
(3 1.8715e-11 0)
(3 6.57881e-11 0)
(3 1.801e-10 0)
(3 4.7788e-10 0)
(3 1.16041e-09 0)
(3 2.90413e-09 0)
(3 6.85918e-09 0)
(3 1.68964e-08 0)
(3 3.97855e-08 0)
(3 9.71146e-08 0)
(3 2.29629e-07 0)
(3 5.55769e-07 0)
(3 1.32444e-06 0)
(3 3.17302e-06 0)
(2.99999 7.62641e-06 0)
(2.99998 1.81068e-05 0)
(2.99995 4.38849e-05 0)
(2.99987 0.000103245 0)
(2.99969 0.000251874 0)
(2.99925 0.000590318 0)
(2.99824 0.00144275 0)
(2.99574 0.00339015 0)
(2.98986 0.0082914 0)
(2.97536 0.0198305 0)
(3 1.70812e-12 0)
(3 1.04502e-11 0)
(3 3.65297e-11 0)
(3 1.00503e-10 0)
(3 2.64843e-10 0)
(3 6.45604e-10 0)
(3 1.60749e-09 0)
(3 3.80393e-09 0)
(3 9.33677e-09 0)
(3 2.19879e-08 0)
(3 5.35512e-08 0)
(3 1.26408e-07 0)
(3 3.05729e-07 0)
(3 7.25954e-07 0)
(3 1.74169e-06 0)
(2.99999 4.16628e-06 0)
(2.99999 9.90114e-06 0)
(2.99997 2.38956e-05 0)
(2.99993 5.62958e-05 0)
(2.99983 0.000136737 0)
(2.9996 0.000320276 0)
(2.99904 0.000781316 0)
(2.99773 0.00182879 0)
(2.99454 0.00446324 0)
(2.98691 0.010564 0)
(3 8.97525e-13 0)
(3 5.89427e-12 0)
(3 1.96327e-11 0)
(3 5.67182e-11 0)
(3 1.42474e-10 0)
(3 3.62747e-10 0)
(3 8.64678e-10 0)
(3 2.12945e-09 0)
(3 5.03674e-09 0)
(3 1.22209e-08 0)
(3 2.90197e-08 0)
(3 6.96329e-08 0)
(3 1.6682e-07 0)
(3 3.959e-07 0)
(3 9.57254e-07 0)
(3 2.25125e-06 0)
(2.99999 5.48111e-06 0)
(2.99998 1.28217e-05 0)
(2.99996 3.12981e-05 0)
(2.99991 7.31921e-05 0)
(2.99979 0.000178217 0)
(2.9995 0.000418789 0)
(2.99881 0.00101478 0)
(2.99713 0.00240286 0)
(2.9932 0.00580863 0)
(3 4.87381e-13 0)
(3 3.15017e-12 0)
(3 1.07234e-11 0)
(3 3.03425e-11 0)
(3 7.78525e-11 0)
(3 1.94649e-10 0)
(3 4.68855e-10 0)
(3 1.14719e-09 0)
(3 2.70846e-09 0)
(3 6.60518e-09 0)
(3 1.54989e-08 0)
(3 3.77407e-08 0)
(3 8.85712e-08 0)
(3 2.14778e-07 0)
(3 5.06212e-07 0)
(3 1.21997e-06 0)
(3 2.89475e-06 0)
(2.99999 6.91713e-06 0)
(2.99998 1.65442e-05 0)
(2.99995 3.92208e-05 0)
(2.99989 9.44885e-05 0)
(2.99974 0.000222371 0)
(2.99938 0.0005389 0)
(2.99853 0.00126491 0)
(2.99652 0.00307115 0)
(3 2.7124e-13 0)
(3 1.66448e-12 0)
(3 5.78944e-12 0)
(3 1.60361e-11 0)
(3 4.20524e-11 0)
(3 1.02955e-10 0)
(3 2.53466e-10 0)
(3 6.05869e-10 0)
(3 1.4595e-09 0)
(3 3.48912e-09 0)
(3 8.30088e-09 0)
(3 1.99516e-08 0)
(3 4.70613e-08 0)
(3 1.13786e-07 0)
(3 2.66677e-07 0)
(3 6.47075e-07 0)
(3 1.51362e-06 0)
(3 3.66423e-06 0)
(2.99999 8.60648e-06 0)
(2.99998 2.06907e-05 0)
(2.99994 4.88594e-05 0)
(2.99987 0.000116655 0)
(2.99968 0.00027726 0)
(2.99924 0.000656783 0)
(2.9982 0.00157166 0)
(3 1.31817e-13 0)
(3 8.65293e-13 0)
(3 3.06386e-12 0)
(3 8.48518e-12 0)
(3 2.23766e-11 0)
(3 5.44635e-11 0)
(3 1.35069e-10 0)
(3 3.18986e-10 0)
(3 7.77287e-10 0)
(3 1.82712e-09 0)
(3 4.41547e-09 0)
(3 1.04152e-08 0)
(3 2.4949e-08 0)
(3 5.92229e-08 0)
(3 1.40739e-07 0)
(3 3.36734e-07 0)
(3 7.92793e-07 0)
(3 1.91035e-06 0)
(2.99999 4.47178e-06 0)
(2.99999 1.08084e-05 0)
(2.99997 2.52546e-05 0)
(2.99993 6.09774e-05 0)
(2.99983 0.000142709 0)
(2.99961 0.000343558 0)
(2.99907 0.000807491 0)
(3 8.13294e-14 0)
(3 4.584e-13 0)
(3 1.62593e-12 0)
(3 4.48711e-12 0)
(3 1.1589e-11 0)
(3 2.87118e-11 0)
(3 6.99016e-11 0)
(3 1.67182e-10 0)
(3 4.02843e-10 0)
(3 9.51187e-10 0)
(3 2.29331e-09 0)
(3 5.38245e-09 0)
(3 1.29684e-08 0)
(3 3.0486e-08 0)
(3 7.31399e-08 0)
(3 1.72453e-07 0)
(3 4.11879e-07 0)
(3 9.75598e-07 0)
(3 2.31531e-06 0)
(2.99999 5.5202e-06 0)
(2.99998 1.30079e-05 0)
(2.99996 3.11566e-05 0)
(2.99992 7.31977e-05 0)
(2.9998 0.00017561 0)
(2.99952 0.000412049 0)
(3 5.10387e-14 0)
(3 2.59808e-13 0)
(3 8.28104e-13 0)
(3 2.29094e-12 0)
(3 5.81376e-12 0)
(3 1.45132e-11 0)
(3 3.48405e-11 0)
(3 8.501e-11 0)
(3 1.99359e-10 0)
(3 4.84494e-10 0)
(3 1.12644e-09 0)
(3 2.73579e-09 0)
(3 6.35431e-09 0)
(3 1.53777e-08 0)
(3 3.5815e-08 0)
(3 8.62155e-08 0)
(3 2.02006e-07 0)
(3 4.81684e-07 0)
(3 1.13807e-06 0)
(3 2.68789e-06 0)
(2.99999 6.40737e-06 0)
(2.99998 1.49541e-05 0)
(2.99995 3.59928e-05 0)
(2.99989 8.32838e-05 0)
(2.99974 0.000201327 0)
(3 -8.45012e-16 0)
(3 8.83106e-14 0)
(3 3.16037e-13 0)
(3 9.80876e-13 0)
(3 2.6235e-12 0)
(3 6.46141e-12 0)
(3 1.60004e-11 0)
(3 3.79963e-11 0)
(3 9.17259e-11 0)
(3 2.15461e-10 0)
(3 5.16581e-10 0)
(3 1.21222e-09 0)
(3 2.88792e-09 0)
(3 6.78838e-09 0)
(3 1.6092e-08 0)
(3 3.78445e-08 0)
(3 8.93476e-08 0)
(3 2.10401e-07 0)
(3 4.93164e-07 0)
(3 1.1648e-06 0)
(3 2.71109e-06 0)
(2.99999 6.40376e-06 0)
(2.99997 1.48092e-05 0)
(2.99993 3.49361e-05 0)
(2.99984 8.0408e-05 0)
(3 -7.18089e-15 0)
(3 -3.91884e-15 0)
(3 7.39233e-14 0)
(3 2.26079e-13 0)
(3 6.8527e-13 0)
(3 1.79109e-12 0)
(3 4.37254e-12 0)
(3 1.08431e-11 0)
(3 2.55423e-11 0)
(3 6.09896e-11 0)
(3 1.45078e-10 0)
(3 3.37788e-10 0)
(3 8.13655e-10 0)
(3 1.86259e-09 0)
(3 4.51577e-09 0)
(3 1.02125e-08 0)
(3 2.48516e-08 0)
(3 5.58044e-08 0)
(3 1.34825e-07 0)
(3 3.03752e-07 0)
(3 7.20875e-07 0)
(2.99999 1.64241e-06 0)
(2.99998 3.78142e-06 0)
(2.99995 8.73455e-06 0)
(2.99987 1.95124e-05 0)
(1.27867 1.0991 0)
(1.69405 0.898235 0)
(1.87931 0.631542 0)
(1.90572 0.363855 0)
(1.85357 0.138824 0)
(1.7546 -0.0102041 0)
(1.65454 -0.0471634 0)
(1.60488 -0.0151371 0)
(1.59687 0.0264738 0)
(1.59992 0.0464045 0)
(1.60344 0.0438911 0)
(1.60439 0.0323634 0)
(1.60288 0.0215184 0)
(1.60027 0.0131262 0)
(1.59654 0.0102005 0)
(1.59436 0.0109213 0)
(1.5948 0.0129919 0)
(1.59635 0.0145006 0)
(1.59815 0.0148011 0)
(1.60053 0.0145271 0)
(1.60326 0.0133617 0)
(1.6059 0.0117334 0)
(1.60864 0.0102933 0)
(1.6117 0.00954728 0)
(1.61511 0.00923428 0)
(1.61874 0.00904385 0)
(1.62219 0.00882614 0)
(1.62476 0.00885131 0)
(1.6264 0.00898662 0)
(1.62683 0.00929656 0)
(1.62442 0.009941 0)
(1.61504 0.011192 0)
(1.5894 0.0141003 0)
(1.52611 0.0208931 0)
(1.37494 0.0363912 0)
(1.01868 0.0727314 0)
(0.435029 0.157306 0)
(-0.0183246 0.194666 0)
(-0.240393 0.0937312 0)
(-0.342403 0.00613264 0)
(-0.401455 -0.0267253 0)
(-0.367653 -0.0404995 0)
(-0.27733 -0.0552491 0)
(-0.177783 -0.0627834 0)
(-0.0764267 -0.0666805 0)
(0.036158 -0.0643757 0)
(0.134359 -0.0545359 0)
(0.218036 -0.0483339 0)
(0.295608 -0.0440828 0)
(0.367183 -0.0406074 0)
(0.433107 -0.0375047 0)
(0.492836 -0.0343921 0)
(0.549236 -0.03191 0)
(0.605861 -0.0306814 0)
(0.662354 -0.0299138 0)
(0.716465 -0.0284562 0)
(0.767982 -0.0267514 0)
(0.817201 -0.0252568 0)
(0.864495 -0.024039 0)
(0.910033 -0.0229367 0)
(0.954023 -0.0218698 0)
(0.996556 -0.0207972 0)
(1.03777 -0.0197382 0)
(1.07773 -0.0186952 0)
(1.11652 -0.0176844 0)
(1.15418 -0.0167012 0)
(1.19078 -0.0157586 0)
(1.22634 -0.0148412 0)
(1.26091 -0.0139638 0)
(1.29448 -0.013105 0)
(1.32712 -0.0122833 0)
(1.35884 -0.0114753 0)
(1.38971 -0.0107022 0)
(1.41976 -0.00994128 0)
(1.44906 -0.00921651 0)
(1.47763 -0.00850656 0)
(1.5055 -0.00783568 0)
(1.53269 -0.00717927 0)
(1.55921 -0.00655924 0)
(1.58508 -0.00595305 0)
(1.61031 -0.005373 0)
(1.63494 -0.00480576 0)
(1.659 -0.00428675 0)
(1.6825 -0.00379987 0)
(1.70546 -0.00333746 0)
(1.7279 -0.00291497 0)
(1.74985 -0.00254739 0)
(1.77135 -0.00221981 0)
(1.79239 -0.00196699 0)
(1.81299 -0.00173386 0)
(1.83321 -0.00147087 0)
(1.85311 -0.00118022 0)
(1.87267 -0.000892266 0)
(1.89189 -0.000613206 0)
(1.9107 -0.000342463 0)
(1.929 -6.19982e-05 0)
(1.94654 0.000252857 0)
(1.96272 0.00066778 0)
(1.9761 0.00115251 0)
(1.98588 0.00212038 0)
(1.37138 1.00748 0)
(1.68855 0.721724 0)
(1.86348 0.404107 0)
(1.94735 0.131535 0)
(1.99664 -0.06406 0)
(2.02571 -0.166696 0)
(2.03433 -0.171979 0)
(2.03277 -0.13046 0)
(2.01844 -0.0813477 0)
(1.99582 -0.0423373 0)
(1.97881 -0.02091 0)
(1.97394 -0.0145583 0)
(1.97475 -0.0166562 0)
(1.97675 -0.0215889 0)
(1.97848 -0.0239631 0)
(1.97916 -0.0235526 0)
(1.97962 -0.0216114 0)
(1.97962 -0.0193406 0)
(1.97985 -0.0172746 0)
(1.98068 -0.0156147 0)
(1.98171 -0.0146544 0)
(1.98314 -0.0141945 0)
(1.98519 -0.0139547 0)
(1.98757 -0.0136928 0)
(1.98989 -0.0132746 0)
(1.99213 -0.0127406 0)