/*--------------------------------*- C++ -*----------------------------------*\
  =========                 |
  \\      /  F ield         | OpenFOAM: The Open Source CFD Toolbox
   \\    /   O peration     | Website:  https://openfoam.org
    \\  /    A nd           | Version:  13
     \\/     M anipulation  |
\*---------------------------------------------------------------------------*/
FoamFile
{
    format      ascii;
    class       volScalarField;
    location    "9";
    object      p;
}
// * * * * * * * * * * * * * * * * * * * * * * * * * * * * * * * * * * * * * //

dimensions      [1 -1 -2 0 0 0 0];

internalField   nonuniform List<scalar> 
5250
(
1.00001
1.00004
1.00011
1.0003
1.00068
1.00185
1.00417
1.01114
1.02584
1.06695
1.16469
1.43391
2.19009
4.44183
10.3736
11.229
11.1
11.0812
11.1726
11.3972
11.6143
11.754
11.8638
11.9506
12.0175
1.00001
1.00004
1.00011
1.00029
1.00069
1.0018
1.00416
1.01099
1.02553
1.06632
1.16267
1.42931
2.17497
4.39954
10.2872
11.2234
11.0949
11.0728
11.164
11.3883
11.6049
11.7451
11.8565
11.9446
12.0131
1.00001
1.00004
1.00011
1.00026
1.00072
1.00163
1.00439
1.01001
1.02637
1.06257
1.16169
1.41586
2.14731
4.30641
10.0943
11.2105
11.0799
11.0455
11.1339
11.3538
11.5673
11.7054
11.8161
11.9033
11.9715
1.00001
1.00004
1.0001
1.00028
1.00064
1.0017
1.00395
1.01022
1.02445
1.06182
1.15405
1.4018
2.10103
4.16809
9.79046
11.1965
11.0586
10.9996
11.0824
11.2935
11.5014
11.6349
11.742
11.8266
11.895
1.00001
1.00003
1.00009
1.00026
1.00061
1.00161
1.00376
1.00972
1.02325
1.0588
1.1463
1.38083
2.04031
3.98501
9.36998
11.1871
11.0336
10.9363
11.0116
11.2102
11.4105
11.5372
11.6385
11.7193
11.7889
1.00001
1.00003
1.00009
1.00023
1.00062
1.00141
1.00377
1.00857
1.0228
1.05339
1.13873
1.35257
1.96619
3.75796
8.82108
11.1894
11.0076
10.8554
10.9208
11.1024
11.2914
11.4068
11.4976
11.5705
11.6402
1.00001
1.00003
1.00009
1.00021
1.00057
1.00129
1.00347
1.00789
1.02082
1.04919
1.12677
1.32202
1.87604
3.49074
8.13374
11.206
10.9834
10.7576
10.8106
10.9695
11.1417
11.2389
11.311
11.3665
11.4301
1.00001
1.00002
1.00008
1.00019
1.00051
1.00116
1.0031
1.00715
1.01857
1.04434
1.1132
1.28707
1.774
3.18706
7.30709
11.241
10.9614
10.6438
10.6815
10.8105
10.9584
11.0275
11.0671
11.0858
11.1233
1
1.00002
1.00007
1.00017
1.00043
1.00106
1.00266
1.00635
1.01624
1.03885
1.09895
1.24913
1.66613
2.86187
6.37653
11.2495
10.9322
10.5209
10.5371
10.6251
10.7381
10.7651
10.7521
10.6962
10.6444
1
1.00002
1.00006
1.00016
1.00036
1.00096
1.00217
1.0058
1.01329
1.03464
1.08284
1.21368
1.55625
2.53903
5.38523
11.1438
10.8505
10.4012
10.3708
10.4163
10.4752
10.4525
10.3579
10.14
9.82134
1
1.00002
1.00005
1.00013
1.00032
1.00081
1.00194
1.00498
1.01165
1.03013
1.07209
1.18556
1.47954
2.32432
4.79219
10.6491
10.5924
10.3005
10.1733
10.1839
10.1756
10.0932
9.84934
9.28531
7.85225
1
1.00001
1.00005
1.00011
1.00029
1.00067
1.00179
1.00405
1.0108
1.02485
1.06489
1.1579
1.41637
2.13244
4.23585
9.65013
10.3118
10.1617
9.97636
9.94152
9.87333
9.70461
9.32625
8.56823
7.11308
1
1.00001
1.00004
1.00009
1.00025
1.00057
1.00153
1.0035
1.00921
1.02155
1.0552
1.13575
1.35306
1.95475
3.70775
8.48448
10.1464
10.039
9.8079
9.70007
9.58085
9.33723
8.86895
8.11221
6.9851
1
1.00001
1.00003
1.00008
1.00021
1.00049
1.00128
1.00293
1.00778
1.01784
1.04684
1.11229
1.29387
1.78042
3.19903
7.18338
10.0466
9.93942
9.67034
9.47292
9.29918
9.01252
8.53836
7.85297
6.97114
1
1.00001
1.00002
1.00007
1.00016
1.00043
1.00097
1.00259
1.00584
1.01554
1.03602
1.09343
1.23139
1.61683
2.7005
5.78495
9.89853
9.82902
9.56627
9.26931
9.04417
8.74321
8.29458
7.68568
6.94876
1
1.00001
1.00002
1.00005
1.00013
1.00033
1.00081
1.00195
1.00493
1.01164
1.02973
1.07141
1.18226
1.46875
2.27459
4.531
9.47094
9.64916
9.46044
9.09337
8.82441
8.52034
8.10209
7.55746
6.91749
1
1.00001
1.00002
1.00004
1.0001
1.00027
1.00061
1.00165
1.00372
1.00985
1.0228
1.05874
1.14329
1.3731
2.00263
3.80567
8.40585
9.38957
9.26119
8.9526
8.6408
8.33154
7.94201
7.45214
6.88719
1
1
1.00001
1.00003
1.00008
1.00021
1.00049
1.00129
1.00294
1.00779
1.01785
1.04678
1.11177
1.29177
1.77024
3.14558
6.86614
9.14577
9.0783
8.84667
8.4959
8.17276
7.80632
7.36428
6.86222
1
1
1.00001
1.00003
1.00006
1.00017
1.00037
1.001
1.00225
1.00598
1.01362
1.03568
1.08457
1.21865
1.56573
2.54562
5.23515
8.87283
8.93715
8.7731
8.41027
8.04822
7.69331
7.29255
6.8449
1
1
1.00001
1.00002
1.00005
1.00012
1.00028
1.00075
1.00168
1.00448
1.01012
1.02663
1.06232
1.16031
1.40574
2.08829
3.95251
8.20047
8.80157
8.66721
8.3404
7.95041
7.60278
7.23723
6.83978
1
1
1.00001
1.00001
1.00004
1.00009
1.00022
1.00054
1.0013
1.00328
1.00772
1.01982
1.04688
1.11961
1.30002
1.80078
3.18771
6.78979
8.55581
8.49631
8.27893
7.88217
7.53574
7.19847
6.84316
1
1
1
1.00001
1.00003
1.00006
1.00017
1.00039
1.00097
1.00238
1.0057
1.01441
1.03434
1.08674
1.21545
1.56464
2.51914
5.08836
8.21994
8.34848
8.2096
7.87817
7.50695
7.184
6.85703
1
1
1
1.00001
1.00002
1.00005
1.00012
1.00027
1.00072
1.00163
1.00425
1.00984
1.02495
1.06003
1.1508
1.38273
2.01057
3.69006
7.46897
8.2235
8.12765
7.87047
7.51051
7.19107
6.89159
1
1
1
1.00001
1.00001
1.00003
1.00009
1.00019
1.00051
1.00115
1.00306
1.00688
1.01815
1.04205
1.1079
1.26739
1.70576
2.89546
5.95731
7.99957
7.98961
7.85366
7.53993
7.22163
6.964
1
1
1
1
1.00001
1.00002
1.00006
1.00014
1.00034
1.00084
1.00204
1.00489
1.01228
1.02908
1.07332
1.1794
1.46328
2.2122
4.15805
7.53675
7.93255
7.83945
7.6058
7.30145
7.09898
1
1
1
1
1.00001
1.00002
1.00004
1.0001
1.00023
1.0006
1.00138
1.00349
1.00833
1.02044
1.0502
1.12354
1.31346
1.81718
3.17473
6.45441
7.7952
7.78962
7.69142
7.4701
7.31715
1
1
1
1
1
1.00001
1.00003
1.00007
1.00016
1.00041
1.00094
1.00244
1.00553
1.01451
1.03331
1.08592
1.2087
1.54565
2.43558
4.744
7.45682
7.79238
7.76667
7.6871
7.65289
1
1
1
1
1
1.00001
1.00002
1.00005
1.00011
1.00028
1.00063
1.00165
1.00371
1.00975
1.0222
1.05739
1.13668
1.35214
1.90824
3.36745
6.6645
7.75306
7.92924
7.97316
8.06162
1
1
1
1
1
1.00001
1.00001
1.00003
1.00007
1.00018
1.00044
1.00107
1.00266
1.00625
1.01585
1.03734
1.09423
1.23232
1.60379
2.58667
5.08637
7.57191
8.22396
8.44373
8.65657
1
1
1
1
1
1
1.00001
1.00002
1.00005
1.00013
1.00029
1.00075
1.00168
1.00444
1.00995
1.0261
1.06038
1.15446
1.3846
2.00251
3.5852
7.04689
8.60444
9.12116
9.38923
1
1
1
1
1
1
1.00001
1.00001
1.00003
1.00009
1.0002
1.00052
1.00118
1.00306
1.00708
1.01788
1.04292
1.10694
1.268
1.69862
2.86483
5.84731
9.00367
9.97924
10.1465
1
1
1
1
1
1
1
1.00001
1.00002
1.00006
1.00015
1.00037
1.00085
1.0022
1.005
1.0131
1.03008
1.07783
1.1882
1.4923
2.30137
4.46986
9.14853
10.8872
10.869
1
1
1
1
1
1
1
1.00001
1.00002
1.00005
1.00011
1.00029
1.00065
1.00174
1.00393
1.0104
1.02412
1.06217
1.1521
1.39765
2.0745
4.01549
8.97714
11.5354
11.4406
1
1
1
1
1
1
1
1.00001
1.00002
1.00004
1.00009
1.00023
1.00056
1.00143
1.00334
1.0088
1.02048
1.05347
1.13049
1.34386
1.93149
3.68316
8.55748
11.9634
11.7361
1
1
1
1
1
1
1
1.00001
1.00001
1.00003
1.00008
1.00019
1.00051
1.00118
1.00313
1.00738
1.01902
1.04653
1.11869
1.30681
1.83908
3.43583
8.13481
12.2749
11.8397
1
1
1
1
1
1
1
1
1.00001
1.00003
1.00007
1.00018
1.00044
1.00116
1.00267
1.00717
1.01666
1.04404
1.10749
1.28446
1.77038
3.25327
7.75139
12.4547
11.779
1
1
1
1
1
1
1
1
1.00001
1.00003
1.00007
1.00016
1.00043
1.00099
1.00269
1.00613
1.01665
1.03894
1.10284
1.26095
1.71656
3.08382
7.31811
12.5505
11.6809
1
1
1
1
1
1
1
1
1.00001
1.00003
1.00006
1.00016
1.00038
1.00101
1.00233
1.00627
1.01447
1.03861
1.09309
1.24681
1.66054
2.92112
6.82191
12.6126
11.6461
1
1
1
1
1
1
1
1
1.00001
1.00003
1.00006
1.00016
1.00036
1.00097
1.00222
1.00597
1.01374
1.03654
1.08766
1.23096
1.613
2.75921
6.28677
12.6074
11.6342
1
1
1
1
1
1
1
1
1.00001
1.00002
1.00006
1.00015
1.00035
1.00094
1.00214
1.00573
1.01329
1.03478
1.0843
1.21942
1.58069
2.6453
5.8776
12.5106
11.623
1
1
1
1
1
1
1
1
1.00001
1.00002
1.00006
1.00014
1.00037
1.00084
1.00225
1.00513
1.01376
1.03201
1.08365
1.20826
1.55869
2.5659
5.62389
12.2654
11.5762
1
1
1
1
1
1
1
1
1.00001
1.00002
1.00005
1.00014
1.00033
1.00087
1.00206
1.00526
1.01281
1.03198
1.07973
1.20298
1.53728
2.50408
5.42411
12.0208
11.5142
1
1
1
1
1
1
1
1
1.00001
1.00002
1.00005
1.00014
1.00032
1.00087
1.00196
1.00527
1.01213
1.03182
1.07647
1.19835
1.51895
2.45262
5.25686
11.7948
11.4355
1
1
1
1
1
1
1
1
1.00001
1.00002
1.00005
1.00013
1.00034
1.00079
1.00207
1.0048
1.01265
1.02966
1.07675
1.19071
1.50685
2.40719
5.11696
11.5868
11.3435
1
1
1
1
1
1
1
1
1.00001
1.00002
1.00005
1.00014
1.00031
1.00083
1.00189
1.00503
1.01169
1.03029
1.07325
1.18865
1.49244
2.37155
5.00081
11.4026
11.2578
1
1
1
1
1
1
1
1
1.00001
1.00002
1.00005
1.00012
1.00033
1.00076
1.002
1.00466
1.01204
1.02884
1.07324
1.18338
1.48348
2.34105
4.90728
11.2465
11.1827
1
1
1
1
1
1
1
1
1.00001
1.00002
1.00005
1.00012
1.00033
1.00074
1.00199
1.00451
1.01208
1.0279
1.07295
1.17926
1.47637
2.31611
4.83523
11.1237
11.1218
1
1
1
1
1
1
1
1
1.00001
1.00002
1.00005
1.00013
1.0003
1.0008
1.00182
1.00482
1.01119
1.02894
1.06999
1.17967
1.46766
2.299
4.7794
11.0223
11.1051
1
1
1
1
1
1
1
1
1.00001
1.00002
1.00005
1.00013
1.0003
1.00078
1.00183
1.00471
1.01129
1.02834
1.07002
1.17742
1.46412
2.28612
4.74182
10.9519
11.0993
1
1
1
1
1
1
1
1
1.00001
1.00002
1.00005
1.00012
1.00032
1.00073
1.00192
1.00451
1.01152
1.02791
1.07015
1.17626
1.46225
2.28028
4.72178
10.9158
11.0977
3.79044
3.28479
4.27563
4.2925
4.05547
3.95954
3.9106
3.82619
3.72661
3.63954
3.56989
3.50633
3.4655
3.44877
3.44542
3.46613
3.51564
3.58703
3.67275
3.76373
3.85614
3.94747
4.03693
4.12436
4.20965
4.29263
4.37279
4.45009
4.5248
4.59596
4.66223
4.72236
4.7766
4.82514
4.86832
4.9059
4.939
4.96904
4.99335
5.01044
5.022
5.02878
5.0309
5.02965
5.02502
5.01492
5.00032
4.98269
4.96244
4.93931
4.91365
4.88538
4.85498
4.82237
4.78787
4.7515
4.71347
4.67381
4.63274
4.59022
4.5465
4.50151
4.4555
4.40841
4.36047
4.31163
4.26209
4.21187
4.16108
4.10983
4.05819
4.00629
3.95423
3.9021
3.85004
3.79812
3.74645
3.69511
3.64418
3.59375
3.54386
3.49458
3.44596
3.39806
3.3509
3.30456
3.25907
3.21447
3.17078
3.12813
3.08655
3.04612
3.00698
2.96936
2.93355
2.89992
2.86906
2.84188
2.81947
2.80495
4.69971
4.23387
4.37541
4.25141
4.02725
3.98789
3.9639
3.84265
3.71886
3.61726
3.54881
3.50394
3.46499
3.44585
3.44138
3.46041
3.50837
3.57974
3.66738
3.75896
3.8514
3.9426
4.03174
4.11868
4.20332
4.28559
4.36502
4.44099
4.51555
4.58705
4.65373
4.71414
4.76891
4.81784
4.86137
4.89948
4.93303
4.96253
4.98678
5.00444
5.01643
5.02336
5.02561
5.02468
5.0209
5.01178
4.99627
4.97842
4.95836
4.93559
4.9101
4.88204
4.8517
4.81919
4.78474
4.74843
4.71043
4.67082
4.62976
4.5873
4.54358
4.49866
4.45267
4.40565
4.35773
4.30898
4.25947
4.20932
4.1586
4.10741
4.05585
4.00403
3.95205
3.90002
3.84805
3.79624
3.74466
3.69344
3.64261
3.59228
3.54248
3.49329
3.44475
3.39691
3.34981
3.30354
3.25812
3.21355
3.16984
3.12722
3.0857
3.04533
3.00628
2.96869
2.93285
2.89918
2.86822
2.84088
2.81815
2.80344
5.51906
4.80227
4.53809
4.29101
4.07049
3.99118
3.91384
3.81479
3.70819
3.61648
3.55309
3.50779
3.4658
3.4336
3.42266
3.44782
3.49868
3.56757
3.65789
3.74793
3.84101
3.93259
4.02211
4.10953
4.19464
4.27738
4.35747
4.43456
4.50913
4.58017
4.64661
4.7072
4.76213
4.81138
4.85519
4.89371
4.92735
4.9564
4.9803
4.99825
5.01045
5.01747
5.01956
5.01882
5.01573
5.00797
4.99241
4.97375
4.95328
4.93062
4.90538
4.87749
4.84722
4.81473
4.78028
4.74395
4.70592
4.66629
4.62519
4.58271
4.53897
4.49405
4.44806
4.40107
4.35317
4.30446
4.25501
4.20492
4.15427
4.10316
4.0517
3.99999
3.94813
3.89626
3.84443
3.79279
3.74137
3.69033
3.63966
3.5895
3.53986
3.49082
3.44244
3.39474
3.34775
3.30161
3.25637
3.21197
3.16861
3.12605
3.08458
3.04426
3.00528
2.96774
2.93195
2.89826
2.86724
2.83974
2.81663
2.80173
5.88152
5.10489
4.66311
4.37493
4.15508
4.01821
3.92359
3.82378
3.72082
3.62795
3.55932
3.50514
3.46683
3.44498
3.44216
3.45567
3.49738
3.56907
3.65365
3.74275
3.8343
3.92552
4.0151
4.10263
4.18768
4.2703
4.35007
4.42668
4.50029
4.57033
4.63604
4.69635
4.75114
4.80033
4.8441
4.88261
4.91612
4.94482
4.96843
4.98649
4.99897
5.00615
5.00822
5.00761
5.00506
4.99849
4.98467
4.96513
4.94395
4.92117
4.89618
4.86861
4.83857
4.80625
4.77188
4.73563
4.69766
4.65807
4.61702
4.5746
4.53092
4.48607
4.44016
4.39327
4.34548
4.29688
4.24756
4.19759
4.14709
4.09614
4.04486
3.99333
3.9417
3.89004
3.83848
3.78709
3.73599
3.68522
3.63488
3.585
3.53565
3.48682
3.43874
3.39133
3.34479
3.29884
3.25374
3.20947
3.16622
3.12386
3.0826
3.04245
3.00365
2.96627
2.93066
2.89709
2.86614
2.83862
2.81523
2.80021
6.0652
5.32469
4.82334
4.49168
4.25603
4.08538
3.96794
3.86734
3.77105
3.68661
3.62339
3.57412
3.53733
3.51119
3.49955
3.50384
3.52478
3.57466
3.65299
3.73814
3.82719
3.91809
4.00841
4.09658
4.18221
4.26475
4.34391
4.4198
4.49221
4.56099
4.62541
4.68492
4.73902
4.78776
4.83109
4.86927
4.90239
4.93066
4.95392
4.97196
4.98462
4.99204
4.99414
4.99361
4.99143
4.98584
4.97387
4.95442
4.93271
4.90957
4.88456
4.85721
4.82744
4.79533
4.76112
4.72497
4.68707
4.64755
4.60656
4.5642
4.5206
4.47585
4.43004
4.38326
4.33561
4.28715
4.23798
4.18819
4.13788
4.08714
4.03608
3.98484
3.93347
3.88214
3.8309
3.7799
3.72917
3.67878
3.62876
3.57925
3.53032
3.48203
3.43432
3.38726
3.34094
3.29531
3.25047
3.20648
3.16344
3.12137
3.08038
3.04054
3.00202
2.96498
2.92969
2.89648
2.86581
2.83857
2.81518
2.80033
6.18005
5.50873
4.99813
4.63444
4.37668
4.19149
4.06068
3.96232
3.88082
3.81439
3.7621
3.71882
3.68019
3.64534
3.61826
3.60414
3.60585
3.61915
3.65575
3.72993
3.81328
3.90752
4.00222
4.09315
4.18007
4.26227
4.33999
4.41356
4.48339
4.54972
4.61212
4.67017
4.72329
4.77124
4.81395
4.85157
4.88422
4.91201
4.93495
4.95288
4.96572
4.97343
4.97575
4.97528
4.97341
4.9686
4.95826
4.93974
4.91806
4.8946
4.86941
4.84215
4.8126
4.78078
4.74679
4.71083
4.67308
4.63369
4.59282
4.55059
4.50712
4.46251
4.41685
4.37025
4.32277
4.27451
4.22554
4.17598
4.12589
4.07543
4.02464
3.97374
3.92269
3.8718
3.82094
3.77039
3.72014
3.67039
3.62103
3.57215
3.52374
3.47587
3.42857
3.38187
3.33589
3.29061
3.24615
3.20251
3.15982
3.11811
3.07752
3.03811
3.00008
2.96357
2.92888
2.89631
2.86626
2.83972
2.8168
2.80287
6.25876
5.66017
5.16647
4.79117
4.516
4.32096
4.18677
4.09973
4.04145
3.99957
3.96514
3.93061
3.89212
3.8473
3.79655
3.74634
3.7064
3.69452
3.7024
3.73057
3.79351
3.88353
3.98542
4.08354
4.17466
4.25812
4.33509
4.40626
4.47349
4.53709
4.59712
4.65329
4.70512
4.75206
4.794
4.831
4.86308
4.89035
4.9129
4.93059
4.94348
4.95142
4.95401
4.95361
4.95196
4.94774
4.93865
4.92146
4.90039
4.87695
4.85158
4.82426
4.79484
4.76325
4.72954
4.69383
4.6563
4.61711
4.57643
4.53437
4.4911
4.44668
4.40124
4.35486
4.30762
4.25961
4.21091
4.16164
4.11185
4.06173
4.01131
3.96083
3.91015
3.85983
3.80975
3.75999
3.71045
3.66128
3.61248
3.56409
3.51614
3.4687
3.42184
3.37557
3.33002
3.28518
3.24118
3.19799
3.1558
3.11459
3.07457
3.03578
2.99847
2.96277
2.929
2.89738
2.8684
2.84324
2.82151
2.8096
6.31687
5.7849
5.32209
4.95237
4.67421
4.47765
4.35146
4.28469
4.25599
4.2413
4.2267
4.2037
4.16655
4.10646
4.01891
3.92188
3.83644
3.78105
3.76944
3.77747
3.80475
3.86604
3.95884
4.06153
4.15962
4.24799
4.32682
4.39761
4.46265
4.52343
4.58068
4.6344
4.68437
4.73002
4.77097
4.80726
4.83866
4.86538
4.88748
4.90509
4.91798
4.92616
4.92899
4.92863
4.92712
4.92325
4.91497
4.89915
4.87905
4.85598
4.8306
4.80316
4.77374
4.74227
4.70881
4.67337
4.63613
4.59719
4.55677
4.51495
4.47193
4.42776
4.38259
4.33647
4.28952
4.2418
4.1934
4.14445
4.09501
4.0453
3.99535
3.94542
3.89578
3.84619
3.7968
3.74771
3.69883
3.65025
3.60201
3.55416
3.50679
3.4599
3.41361
3.3679
3.32292
3.27863
3.23522
3.19263
3.15109
3.11057
3.07134
3.03342
2.99714
2.96262
2.93008
2.89998
2.87282
2.84992
2.8303
2.82178
6.36541
5.89257
5.46855
5.11923
4.85396
4.67096
4.56848
4.53432
4.53507
4.53844
4.53583
4.52285
4.48681
4.40773
4.26205
4.11216
3.98504
3.8953
3.84885
3.84934
3.85815
3.88505
3.94464
4.03339
4.12869
4.22143
4.30538
4.37938
4.44532
4.50523
4.56059
4.6121
4.65998
4.70407
4.74395
4.77951
4.81014
4.83644
4.85818
4.87558
4.88833
4.8967
4.89985
4.89954
4.89819
4.89471
4.88723
4.87274
4.85389
4.83164
4.80663
4.77929
4.74991
4.71855
4.68529
4.65014
4.61324
4.57465
4.53456
4.49308
4.45037
4.40653
4.36168
4.3159
4.26927
4.22189
4.17383
4.12526
4.07622
4.02708
3.97794
3.92894
3.88004
3.83127
3.78261
3.73417
3.68594
3.63801
3.59041
3.54321
3.49648
3.45022
3.40458
3.35949
3.31517
3.27153
3.22881
3.18696
3.14623
3.1066
3.06839
3.03165
2.99677
2.9637
2.93295
2.90514
2.88064
2.86102
2.84476
2.84078
6.41334
5.99417
5.6143
5.29894
5.06415
4.91328
4.85336
4.85531
4.86606
4.88848
4.88542
4.86722
4.8142
4.69554
4.49842
4.30971
4.15464
4.04069
3.96818
3.93698
3.93783
3.94594
3.96963
4.02153
4.0977
4.18089
4.26591
4.34483
4.41568
4.47862
4.53483
4.58571
4.6322
4.67477
4.71339
4.74793
4.77806
4.8039
4.8254
4.84262
4.85548
4.86403
4.8676
4.86735
4.86613
4.86295
4.85612
4.84277
4.82516
4.80392
4.77957
4.75257
4.72332
4.69206
4.65895
4.62404
4.58745
4.54922
4.50953
4.46844
4.42613
4.38269
4.33822
4.29282
4.24655
4.19955
4.15187
4.1038
4.05557
4.00731
3.95904
3.91085
3.86268
3.81464
3.7667
3.71897
3.67146
3.62426
3.5774
3.53092
3.48492
3.43939
3.39449
3.35015
3.3066
3.26377
3.22191
3.18099
3.14129
3.10284
3.06596
3.03083
2.99764
2.96657
2.93838
2.91363
2.89284
2.87763
2.86668
2.86685
6.46628
6.10003
5.77239
5.50658
5.32054
5.22038
5.21371
5.22331
5.24865
5.26352
5.25345
5.21446
5.11921
4.92803
4.71122
4.51073
4.34462
4.2157
4.12233
4.06262
4.03242
4.02816
4.03256
4.04857
4.08585
4.1495
4.21603
4.29217
4.36736
4.43615
4.49702
4.55058
4.59799
4.64027
4.67807
4.71171
4.74123
4.76666
4.7881
4.80526
4.81842
4.82739
4.83149
4.83129
4.83021
4.82733
4.82113
4.80885
4.79243
4.77235
4.74895
4.7226
4.69376
4.66275
4.62986
4.5952
4.55894
4.52112
4.48187
4.44126
4.39942
4.35644
4.31241
4.26743
4.22155
4.17497
4.12794
4.08073
4.03339
3.98601
3.93856
3.89114
3.84374
3.79646
3.7493
3.70235
3.65565
3.60923
3.56318
3.51749
3.4723
3.42758
3.38351
3.34003
3.29738
3.25551
3.21469
3.17492
3.13653
3.09958
3.06449
3.03137
3.00033
2.97217
2.94747
2.92696
2.91138
2.90222
2.89892
2.90004
6.53155
6.22503
5.96038
5.76014
5.63883
5.60567
5.61291
5.63403
5.65629
5.64873
5.6146
5.52678
5.34767
5.1272
4.91131
4.71512
4.54949
4.41211
4.30206
4.21854
4.15964
4.12412
4.10704
4.1084
4.1168
4.13986
4.18774
4.23886
4.30528
4.37554
4.4419
4.50118
4.55283
4.59749
4.63622
4.6699
4.69918
4.72444
4.74587
4.76344
4.77702
4.78657
4.79151
4.79139
4.79051
4.78801
4.78252
4.77144
4.75612
4.73719
4.71491
4.68948
4.66132
4.63078
4.59823
4.56389
4.52798
4.49057
4.45179
4.41169
4.37038
4.3279
4.28436
4.23981
4.19444
4.1486
4.10246
4.05616
4.00968
3.96314
3.91651
3.86991
3.82333
3.77688
3.73057
3.68447
3.63863
3.59307
3.54789
3.50309
3.4588
3.415
3.37188
3.32942
3.28784
3.24714
3.2076
3.1693
3.13256
3.09759
3.06479
3.03394
3.00603
2.98169
2.96169
2.94674
2.93801
2.93675
2.93786
2.94204
6.62398
6.3873
6.19973
6.07892
6.03073
6.03458
6.04857
6.06574
6.05777
6.02208
5.93094
5.74699
5.53066
5.31367
5.11082
4.92857
4.76376
4.61997
4.49663
4.39326
4.31003
4.24673
4.20243
4.17528
4.16762
4.17084
4.18365
4.21375
4.25337
4.30775
4.37187
4.43488
4.49189
4.54152
4.58389
4.6198
4.65029
4.67623
4.69815
4.71628
4.73057
4.74067
4.74679
4.74709
4.74646
4.7444
4.73967
4.73004
4.71585
4.69814
4.67708
4.65278
4.62558
4.59578
4.56382
4.52995
4.49449
4.45754
4.41927
4.37971
4.33895
4.29702
4.25396
4.21
4.16546
4.12056
4.07535
4.02995
3.98435
3.93867
3.89291
3.84718
3.80151
3.75594
3.71055
3.66535
3.62043
3.5758
3.53157
3.48774
3.44443
3.40169
3.35965
3.31838
3.27805
3.23879
3.20082
3.16438
3.12978
3.09743
3.06706
3.03958
3.01589
2.99658
2.98291
2.97512
2.97539
2.9775
2.98374
2.99872
6.76361
6.60999
6.51215
6.4717
6.47544
6.48862
6.49613
6.48525
6.44199
6.33713
6.13855
5.92037
5.70509
5.50201
5.31376
5.14006
4.97891
4.83111
4.69739
4.5783
4.47519
4.38866
4.31944
4.2668
4.23179
4.21093
4.21112
4.21585
4.23067
4.26068
4.30258
4.35883
4.41593
4.46953
4.51698
4.55752
4.59163
4.62013
4.64376
4.66304
4.67835
4.68932
4.69662
4.69832
4.69784
4.69618
4.69229
4.6843
4.6715
4.6551
4.63537
4.61237
4.58637
4.55761
4.52652
4.49337
4.45852
4.42214
4.38444
4.34545
4.30526
4.26385
4.22144
4.17838
4.13481
4.09088
4.04662
4.00214
3.95747
3.91271
3.8679
3.8231
3.77837
3.73376
3.68932
3.6451
3.60117
3.55756
3.51436
3.47161
3.42944
3.3879
3.34714
3.30727
3.26848
3.23098
3.19503
3.16096
3.12923
3.09955
3.07273
3.04989
3.03172
3.01923
3.01352
3.01414
3.01716
3.02529
3.04255
3.07843
6.97568
6.91253
6.90879
6.91896
6.94449
6.94727
6.93232
6.87781
6.7506
6.53612
6.30633
6.08732
5.88415
5.69522
5.51828
5.35064
5.1909
5.03947
4.89747
4.76618
4.6475
4.54255
4.45255
4.37772
4.31863
4.27471
4.24712
4.2341
4.23542
4.24264
4.25941
4.29167
4.33627
4.38685
4.43597
4.4809
4.52025
4.55341
4.58062
4.6024
4.61951
4.63194
4.64057
4.6443
4.64404
4.6429
4.64
4.63389
4.62265
4.60768
4.5894
4.56788
4.54332
4.51589
4.48597
4.45381
4.41981
4.38417
4.34715
4.3088
4.26916
4.22843
4.18696
4.14491
4.10237
4.05945
4.0162
3.97271
3.92904
3.88527
3.84146
3.79766
3.75393
3.71034
3.66693
3.62377
3.58091
3.53842
3.49637
3.45485
3.41396
3.3738
3.33456
3.29637
3.25951
3.22421
3.19085
3.15994
3.13119
3.10526
3.08353
3.0666
3.05572
3.05219
3.05331
3.05739
3.06803
3.09052
3.12133
3.17679
7.28823
7.30227
7.34594
7.41313
7.418
7.39923
7.33341
7.1827
6.94352
6.69697
6.46789
6.25994
6.06962
5.89146
5.72149
5.55691
5.3969
5.24157
5.09285
4.9523
4.82174
4.70252
4.5959
4.50259
4.42326
4.35796
4.30732
4.27125
4.24889
4.24183
4.24386
4.25173
4.2702
4.3071
4.34819
4.393
4.4359
4.47409
4.50633
4.53233
4.5526
4.56778
4.57824
4.58438
4.58503
4.58442
4.58244
4.57798
4.56894
4.5556
4.53892
4.51906
4.49615
4.47032
4.44184
4.41099
4.3781
4.34344
4.30725
4.2696
4.23071
4.19096
4.15054
4.10957
4.06812
4.02628
3.98411
3.94168
3.89909
3.85637
3.81362
3.77088
3.72824
3.68573
3.64343
3.60141
3.55972
3.51847
3.47772
3.43759
3.39819
3.3597
3.32228
3.2862
3.25174
3.21928
3.18938
3.16181
3.137
3.11661
3.1014
3.0919
3.09108
3.09269
3.09817
3.1113
3.13808
3.17936
3.21864
3.27952
7.68051
7.7582
7.87251
7.90372
7.88322
7.80901
7.63779
7.3692
7.09866
6.85365
6.63609
6.44051
6.25996
6.08824
5.92134
5.7572
5.59551
5.43647
5.28222
5.1345
4.99472
4.86442
4.74467
4.63645
4.5404
4.45694
4.38648
4.32949
4.28582
4.25587
4.23923
4.23551
4.23739
4.24599
4.26605
4.30282
4.3423
4.38244
4.41909
4.45034
4.47559
4.49501
4.50883
4.51757
4.52116
4.52083
4.51951
4.51633
4.50971
4.49834
4.48352
4.46554
4.4445
4.42051
4.39377
4.36451
4.33303
4.29961
4.26445
4.22775
4.18994
4.15134
4.11207
4.07226
4.03197
3.99129
3.95026
3.909
3.86754
3.82597
3.78436
3.74277
3.70129
3.65996
3.61889
3.57811
3.53776
3.49788
3.45863
3.42012
3.3825
3.34601
3.31086
3.27742
3.24605
3.21739
3.19121
3.16781
3.14892
3.13576
3.12864
3.12909
3.13175
3.13939
3.15603
3.18921
3.23066
3.28051
3.3217
3.37809
8.20943
8.34471
8.40061
8.38115
8.3027
8.11667
7.81585
7.51668
7.2505
7.01864
6.81394
6.62781
6.45278
6.28332
6.11632
5.95052
5.78605
5.62345
5.46472
5.31126
5.16426
5.02531
4.89524
4.77519
4.6656
4.56722
4.48024
4.40519
4.34232
4.2921
4.25442
4.23091
4.21839
4.21281
4.21573
4.22628
4.24957
4.2841
4.32013
4.35507
4.38592
4.41106
4.43019
4.4429
4.45056
4.4518
4.45115
4.44915
4.4447
4.43575
4.42295
4.40699
4.38803
4.36612
4.34137
4.31399
4.28423
4.25234
4.2185
4.18313
4.1467
4.10942
4.07145
4.0329
3.99386
3.95442
3.91463
3.8746
3.83437
3.79404
3.75365
3.71332
3.6731
3.63308
3.59335
3.55399
3.51513
3.47686
3.43936
3.40276
3.36732
3.33329
3.30103
3.27097
3.24377
3.2192
3.19754
3.18041
3.16941
3.16546
3.16655
3.1707
3.18137
3.20374
3.24035
3.28567
3.33391
3.38304
3.41948
3.46559
8.84788
8.92492
8.90503
8.81936
8.61406
8.28167
7.95231
7.66192
7.41225
7.19501
7.00023
6.81911
6.64524
6.47455
6.30503
6.13621
5.96848
5.80196
5.63971
5.48167
5.32909
5.18339
5.04533
4.91587
4.79549
4.68486
4.58421
4.49414
4.41487
4.34691
4.29047
4.24624
4.21485
4.19567
4.17991
4.1797
4.18351
4.19495
4.21915
4.25103
4.28411
4.31411
4.33903
4.35796
4.37047
4.37699
4.37695
4.37608
4.37352
4.3679
4.35733
4.3434
4.32653
4.3068
4.28426
4.25903
4.23132
4.20123
4.16913
4.13553
4.10076
4.06501
4.0285
3.99134
3.95367
3.91556
3.87712
3.83841
3.79951
3.76051
3.72148
3.68253
3.64371
3.60516
3.56694
3.52922
3.49208
3.45571
3.4203
3.38606
3.35332
3.32242
3.29387
3.26837
3.24568
3.22585
3.2113
3.2019
3.20189
3.20369
3.20975
3.22396
3.25279
3.29332
3.34078
3.39069
3.43709
3.47868
3.50534
3.53901
9.49515
9.47327
9.37404
9.13665
8.76546
8.40316
8.08774
7.81931
7.58788
7.3819
7.19191
7.01099
6.83451
6.66002
6.48645
6.31389
6.14272
5.97437
5.8077
5.64555
5.48857
5.33755
5.19326
5.05632
4.92737
4.80678
4.69507
4.59256
4.49958
4.41653
4.34376
4.28177
4.23111
4.19283
4.16591
4.14449
4.13195
4.13317
4.13871
4.15193
4.17843
4.20678
4.2351
4.25966
4.2786
4.29141
4.29733
4.2972
4.29609
4.29306
4.28659
4.27504
4.26013
4.24248
4.22219
4.19933
4.17393
4.1461
4.1162
4.08469
4.05183
4.01787
3.98301
3.94743
3.91127
3.87463
3.83764
3.80037
3.76293
3.72539
3.68787
3.65044
3.61322
3.57633
3.53988
3.50405
3.46897
3.43489
3.40203
3.37075
3.34143
3.31459
3.29103
3.27053
3.25285
3.24069
3.2352
3.23596
3.23947
3.24885
3.26877
3.30374
3.34759
3.39685
3.44682
3.49301
3.53078
3.56076
3.5764
3.59879
10.1152
9.98842
9.69419
9.26914
8.86631
8.5238
8.23717
7.99206
7.77469
7.57458
7.38442
7.19988
7.01832
6.83859
6.66035
6.48382
6.30936
6.13765
5.96853
5.80351
5.64307
5.48784
5.33853
5.19562
5.05971
4.93108
4.8103
4.6974
4.59304
4.49728
4.41066
4.33343
4.26626
4.20969
4.16436
4.13135
4.10188
4.08063
4.07599
4.07781
4.08451
4.09959
4.12433
4.14966
4.1735
4.19281
4.20615
4.21258
4.2125
4.21148
4.2084
4.20164
4.18923
4.17358
4.15543
4.13491
4.11197
4.08669
4.05939
4.03032
3.99969
3.9678
3.93483
3.90103
3.86654
3.83154
3.79615
3.76047
3.72464
3.68873
3.65289
3.61719
3.5818
3.54683
3.51246
3.47888
3.4463
3.41504
3.3854
3.35789
3.33301
3.31169
3.29346
3.27872
3.26856
3.26758
3.26925
3.27497
3.28852
3.31608
3.35526
3.40261
3.4535
3.50327
3.54806
3.58407
3.60992
3.62761
3.63414
3.64734
10.7124
10.3328
9.80557
9.33993
8.96413
8.65995
8.40374
8.17672
7.96696
7.7671
7.57299
7.38254
7.19486
7.00967
6.82693
6.64679
6.46938
6.29505
6.12375
5.95617
5.79283
5.63421
5.4808
5.33303
5.19137
5.05612
4.9277
4.80631
4.69227
4.58582
4.4874
4.39738
4.31609
4.24414
4.18213
4.13047
4.09086
4.05417
4.02692
4.01179
4.01147
4.01371
4.02097
4.03681
4.05944
4.08192
4.10136
4.11546
4.1231
4.12368
4.12275
4.11978
4.11316
4.10042
4.08462
4.0663
4.04577
4.02313
3.99857
3.97216
3.94408
3.91455
3.88377
3.852
3.81943
3.78627
3.75266
3.71877
3.68473
3.65066
3.61672
3.58301
3.54974
3.51704
3.48516
3.45432
3.42485
3.39712
3.37163
3.34895
3.33026
3.3145
3.30269
3.29657
3.29732
3.30083
3.3102
3.33004
3.36473
3.40851
3.45839
3.51019
3.55949
3.60249
3.6359
3.65956
3.67382
3.68093
3.68283
3.68746
11.0857
10.3966
9.83214
9.40412
9.07833
8.81403
8.58194
8.36551
8.15684
7.95288
7.7527
7.55608
7.36302
7.17338
6.98709
6.80402
6.62416
6.44754
6.27431
6.10424
5.93842
5.77691
5.62004
5.46813
5.32157
5.18065
5.04572
4.91702
4.79486
4.67949
4.57122
4.4703
4.37714
4.29208
4.2155
4.1481
4.09069
4.04459
4.00266
3.96818
3.94737
3.93729
3.93771
3.94075
3.94906
3.96616
3.98635
4.00563
4.02042
4.02929
4.03106
4.03034
4.02781
4.02181
4.00981
3.99417
3.97596
3.95585
3.93395
3.91029
3.88497
3.85807
3.8298
3.80035
3.76997
3.73889
3.7073
3.67542
3.64339
3.61142
3.57965
3.54827
3.51748
3.48751
3.45866
3.43123
3.40565
3.38247
3.36231
3.34638
3.33389
3.32442
3.3234
3.32532
3.33135
3.34575
3.37458
3.41402
3.46204
3.51432
3.56668
3.61493
3.65592
3.68721
3.70832
3.71999
3.72487
3.72472
3.72389
3.72457
11.0922
10.366
9.84583
9.48623
9.21345
8.9795
8.76005
8.54575
8.3341
8.12527
7.92005
7.71907
7.52245
7.33003
7.14141
6.95633
6.77454
6.59598
6.42063
6.24838
6.08014
5.9159
5.75584
5.60019
5.44926
5.30333
5.16272
5.02767
4.89849
4.77539
4.65866
4.54853
4.44532
4.34931
4.26099
4.1807
4.10904
4.04636
3.99436
3.9467
3.90663
3.87871
3.86228
3.85632
3.85728
3.86144
3.87126
3.88914
3.90676
3.92185
3.93208
3.93592
3.9355
3.93354
3.92854
3.91821
3.90329
3.88566
3.86617
3.84513
3.82258
3.7985
3.77297
3.74616
3.7183
3.68961
3.66036
3.63077
3.60108
3.57151
3.54227
3.51362
3.4858
3.45915
3.43401
3.41089
3.39024
3.37298
3.36004
3.35082
3.34569
3.34666
3.3507
3.3615
3.38378
3.41953
3.46452
3.51581
3.56975
3.62214
3.66915
3.70787
3.73699
3.7558
3.7656
3.7676
3.76696
3.76473
3.75937
3.75931
10.9548
10.2922
9.87338
9.5881
9.35486
9.13644
8.92053
8.70516
8.49141
8.28063
8.07406
7.8718
7.67387
7.48015
7.29024
7.10378
6.92046
6.74014
6.56279
6.38852
6.21731
6.05019
5.88703
5.72788
5.57294
5.42249
5.2768
5.13616
5.00083
4.87108
4.74713
4.62922
4.51755
4.4124
4.31406
4.22284
4.13919
4.0636
3.99656
3.93939
3.88711
3.84203
3.80868
3.78668
3.77348
3.77141
3.77297
3.77826
3.78982
3.80644
3.8219
3.83324
3.83968
3.83953
3.83829
3.83467
3.82683
3.81284
3.79617
3.77764
3.75764
3.73626
3.71354
3.68959
3.66454
3.6386
3.61203
3.58511
3.55813
3.53138
3.50514
3.47976
3.45557
3.43303
3.41256
3.39493
3.38047
3.37166
3.36495
3.36522
3.36783
3.37525
3.39182
3.42394
3.46512
3.51453
3.56879
3.62393
3.67592
3.72134
3.75783
3.78454
3.80116
3.80964
3.80998
3.80908
3.80655
3.80076
3.78934
3.78836
10.777
10.227
9.91713
9.68998
9.47889
9.26651
9.05224
8.8384
8.62676
8.41841
8.21363
8.01286
7.81593
7.6225
7.43228
7.24497
7.06038
6.87839
6.69901
6.52226
6.34827
6.17808
6.0117
5.84917
5.69048
5.53592
5.3857
5.24014
5.0995
4.96402
4.83393
4.70942
4.59067
4.47787
4.37125
4.27105
4.1776
4.09128
4.01258
3.94192
3.88053
3.82402
3.77463
3.73683
3.70915
3.69218
3.6835
3.68391
3.68654
3.69333
3.70719
3.72194
3.73453
3.74259
3.74451
3.74386
3.74155
3.7358
3.72421
3.70906
3.69155
3.67259
3.65251
3.63142
3.60935
3.58645
3.56295
3.53914
3.51534
3.49193
3.46927
3.44787
3.42811
3.41072
3.39606
3.38534
3.3794
3.37797
3.37949
3.38516
3.39842
3.42536
3.46284
3.50983
3.56332
3.6199
3.67574
3.72704
3.77078
3.80511
3.82967
3.84469
3.8515
3.85134
3.85015
3.84696
3.84011
3.83035
3.81608
3.81409
10.6793
10.2023
9.95943
9.76673
9.56858
9.36233
9.15397
8.94679
8.7417
8.53902
8.33889
8.14147
7.94672
7.75444
7.56455
7.37682
7.19128
7.00785
6.82666
6.64779
6.47127
6.29769