/*--------------------------------*- C++ -*----------------------------------*\
  =========                 |
  \\      /  F ield         | OpenFOAM: The Open Source CFD Toolbox
   \\    /   O peration     | Website:  https://openfoam.org
    \\  /    A nd           | Version:  13
     \\/     M anipulation  |
\*---------------------------------------------------------------------------*/
FoamFile
{
    format      ascii;
    class       surfaceScalarField;
    location    "9";
    object      phi;
}
// * * * * * * * * * * * * * * * * * * * * * * * * * * * * * * * * * * * * * //

dimensions      [1 0 -1 0 0 0 0];

internalField   nonuniform List<scalar> 
10325
(
0.0840004
1.26409e-09
0.084
4.83266e-09
0.0840013
1.88688e-08
0.0839979
4.75312e-08
0.084006
1.38253e-07
0.0839872
2.66362e-07
0.0840293
1.06639e-06
0.0839388
1.55547e-06
0.0840981
6.62014e-06
0.0838339
9.32972e-06
0.0841008
3.57275e-05
0.0837235
8.74652e-05
0.0836028
0.000305596
0.0822626
0.0012285
0.0763361
0.00587668
0.0702085
0.00613528
0.0641241
0.00608912
0.0578121
0.00631219
0.0511761
0.00663579
0.0440722
0.00710199
0.036398
0.00767285
0.0281488
0.00824724
0.019366
0.00878214
0.0100192
0.00934575
0.010017
0.0840003
7.09791e-12
0.0840002
1.59054e-08
0.0840004
1.2213e-08
0.0839996
1.59514e-07
0.0840019
9.96147e-08
0.0839928
1.01004e-06
0.084015
7.67768e-07
0.083958
5.71626e-06
0.0840591
6.94542e-06
0.0838836
2.89355e-05
0.0840401
6.06228e-05
0.0837632
0.000191658
0.0835847
0.000613227
0.0822402
0.00247607
0.07627
0.0117859
0.0700957
0.0123166
0.0641009
0.0120893
0.0578417
0.0125715
0.0512303
0.0132468
0.0440596
0.0142708
0.0363058
0.0154253
0.0279712
0.0165798
0.019069
0.0176837
0.00966906
0.0187445
0.0196838
0.0840002
3.01697e-09
0.0840006
1.19014e-08
0.0839994
6.2053e-08
0.0840026
1.14812e-07
0.0839949
4.46578e-07
0.0840131
8.60078e-07
0.083972
2.57824e-06
0.0840578
6.0026e-06
0.0838872
1.43613e-05
0.0841321
3.91129e-05
0.0837784
9.5702e-05
0.0839773
0.000287172
0.0834649
0.000915334
0.0823336
0.0036705
0.0764489
0.0175827
0.0702469
0.0185235
0.0643328
0.0180086
0.058158
0.0187462
0.051597
0.0198077
0.044453
0.0214129
0.0366738
0.0232029
0.0282819
0.0249696
0.0192681
0.026697
0.00974305
0.0282682
0.0294245
0.0840003
3.16984e-09
0.0840001
1.97978e-08
0.0840011
6.88028e-08
0.0839986
1.92749e-07
0.0840043
5.0994e-07
0.0839912
1.27373e-06
0.084019
3.20644e-06
0.0839579
7.88923e-06
0.0840624
1.97545e-05
0.0838749
4.98016e-05
0.0840626
0.000131482
0.0837459
0.000374964
0.0835824
0.00121826
0.0824119
0.00475606
0.0767966
0.0231392
0.0706354
0.0246948
0.0648257
0.0238241
0.0587654
0.0248064
0.0523054
0.026267
0.0452436
0.0284735
0.0375191
0.0309261
0.0290914
0.0333959
0.019954
0.0358326
0.0101474
0.0380737
0.0395693
0.0840003
3.33087e-09
0.0840001
2.85178e-08
0.084001
7.38159e-08
0.0839986
2.77491e-07
0.0840041
5.59039e-07
0.0839914
1.7197e-06
0.0840185
3.74178e-06
0.0839585
1.00778e-05
0.084062
2.43972e-05
0.0838743
6.20217e-05
0.0840666
0.000163701
0.0837439
0.000463283
0.0836085
0.00150088
0.0825423
0.00573287
0.0773702
0.0282488
0.0712687
0.0308098
0.0655567
0.0295432
0.0596409
0.0307222
0.0533344
0.0325731
0.0464179
0.0353892
0.0387834
0.0385596
0.0303542
0.0418222
0.021035
0.0451514
0.010828
0.0482789
0.0503949
0.0840003
5.06706e-09
0.0840005
2.78485e-08
0.0839997
1.04619e-07
0.0840015
2.72515e-07
0.0839967
7.75642e-07
0.0840085
1.82589e-06
0.0839784
4.88219e-06
0.0840459
1.13369e-05
0.0839003
3.01949e-05
0.0841195
7.2377e-05
0.0837945
0.000196091
0.0839879
0.000545088
0.0835197
0.0017519
0.0827671
0.00656343
0.0783967
0.0325164
0.0722925
0.0369267
0.0666311
0.0352133
0.0608734
0.0364804
0.0547593
0.0386876
0.0480568
0.0420905
0.040568
0.0460479
0.0321639
0.0502249
0.0226566
0.0546582
0.0118816
0.0590521
0.0622734
0.0840003
5.31107e-09
0.0840006
3.23828e-08
0.0839996
1.14668e-07
0.0840021
3.13639e-07
0.0839961
8.56814e-07
0.0840102
2.07941e-06
0.083978
5.48758e-06
0.0840463
1.29924e-05
0.0839068
3.3974e-05
0.084117
8.31073e-05
0.0837991
0.000221299
0.0840188
0.000614526
0.0835937
0.00194782
0.0830873
0.00715436
0.0802866
0.035204
0.0739753
0.0432549
0.068262
0.0409374
0.0626116
0.042132
0.0567056
0.0445944
0.0502587
0.0485379
0.0429867
0.0533191
0.0346636
0.0585464
0.0249973
0.0643229
0.0135404
0.070507
0.0758106
0.0840003
5.35912e-09
0.0840005
3.45489e-08
0.0839997
1.20476e-07
0.0840018
3.40341e-07
0.0839969
8.89481e-07
0.0840083
2.3546e-06
0.0839828
5.46657e-06
0.0840355
1.51092e-05
0.0839298
3.3683e-05
0.0840937
9.38322e-05
0.0838425
0.000229134
0.0840536
0.00065778
0.0837685
0.00202395
0.0836795
0.00731936
0.0835642
0.0352081
0.0770238
0.0498175
0.0708277
0.0471465
0.0651531
0.047809
0.0594419
0.0503072
0.0532334
0.0547463
0.0462324
0.0603209
0.0380969
0.0666807
0.0284227
0.0739968
0.0162749
0.0826533
0.0920818
0.0840003
6.12921e-09
0.0840003
3.18983e-08
0.0840005
1.2742e-07
0.0839999
3.10673e-07
0.0840007
9.5007e-07
0.0840001
2.07274e-06
0.0839974
6.02558e-06
0.0840061
1.30108e-05
0.0839843
3.69582e-05
0.0840196
8.47393e-05
0.0839898
0.000233566
0.0840295
0.000622085
0.084114
0.00192975
0.0846532
0.00677453
0.0889722
0.0307896
0.082032
0.0567678
0.0747182
0.0544702
0.0689574
0.0535737
0.0631524
0.0561157
0.0572314
0.0606683
0.050522
0.0670315
0.0430117
0.0741896
0.0339077
0.0830989
0.0210664
0.0954924
0.113144
0.0840003
4.98464e-09
0.0840002
2.92675e-08
0.0840009
1.03421e-07
0.0839992
2.87419e-07
0.0840036
7.64802e-07
0.083994
1.87617e-06
0.0840185
4.89029e-06
0.0839697
1.13689e-05
0.0840823
3.023e-05
0.083907
7.02537e-05
0.0842273
0.000187911
0.0840413
0.000488199
0.0847784
0.00145221
0.0865628
0.00483832
0.0966827
0.0206542
0.0898853
0.0635449
0.0801048
0.0642466
0.0743807
0.0592999
0.0683062
0.0621928
0.0625525
0.0664223
0.0565475
0.0730375
0.0500097
0.0807274
0.0415936
0.0915136
0.0294143
0.107668
0.142553
0.0840003
3.36374e-09
0.0840003
2.92587e-08
0.0840003
8.0099e-08
0.0840004
2.8447e-07
0.0840005
5.99333e-07
0.0839995
1.84683e-06
0.0840043
3.82067e-06
0.0839896
1.12012e-05
0.0840316
2.38209e-05
0.0839632
6.69393e-05
0.0841026
0.000154944
0.0840412
0.000430569
0.0843736
0.00121341
0.0851205
0.00401223
0.0892912
0.0164779
0.0891491
0.0636375
0.0855495
0.0678176
0.0788327
0.0660174
0.0735921
0.067434
0.0685342
0.0714798
0.0639264
0.0776442
0.0589362
0.0857152
0.0544742
0.0959717
0.0538719
0.108265
0.113649
0.0827631
0.0840003
4.07607e-09
0.0840004
2.35809e-08
0.084
8.62285e-08
0.084001
2.30338e-07
0.0839986
6.39127e-07
0.0840053
1.52965e-06
0.083989
4.0034e-06
0.0840314
9.43288e-06
0.0839418
2.44379e-05
0.084129
5.82801e-05
0.0838393
0.000151914
0.0842438
0.000390919
0.0839812
0.00112193
0.0846075
0.00361846
0.0868946
0.01405
0.0880882
0.0623894
0.0853889
0.0705093
0.081027
0.0703791
0.0771802
0.07128
0.0732771
0.0753804
0.0698275
0.0810917
0.0670548
0.0884859
0.0659379
0.0970829
0.069679
0.104514
0.104762
0.0785472
0.0840003
3.57839e-09
0.0840004
2.37947e-08
0.084
7.97888e-08
0.0840011
2.32297e-07
0.0839987
5.91161e-07
0.0840046
1.55838e-06
0.0839916
3.6832e-06
0.0840226
9.72955e-06
0.0839578
2.24803e-05
0.0840829
5.96711e-05
0.0838918
0.000142242
0.0841502
0.000384588
0.0839505
0.0010593
0.0843606
0.00338641
0.0857338
0.0125662
0.0889713
0.0590893
0.0861984
0.0732869
0.0829228
0.0736568
0.0800781
0.0741261
0.0775527
0.0779047
0.0752794
0.083361
0.0741401
0.0896173
0.0755684
0.0956531
0.0799608
0.10011
0.0994823
0.0852184
0.0840003
4.0581e-09
0.0840004
2.04044e-08
0.0840003
8.39797e-08
0.0840005
1.99323e-07
0.0839996
6.18128e-07
0.0840024
1.34903e-06
0.0839943
3.86321e-06
0.0840165
8.50448e-06
0.083965
2.34339e-05
0.0840789
5.37362e-05
0.0838858
0.000143936
0.0841716
0.000359195
0.0839418
0.00101421
0.0844135
0.00312532
0.0855764
0.0112595
0.0927329
0.051873
0.0896477
0.0763853
0.0859556
0.0773575
0.0833285
0.0767553
0.0815785
0.0796492
0.0805164
0.0844211
0.0806824
0.089449
0.0825339
0.0937848
0.0862667
0.0963693
0.0951229
0.0906011
0.0840003
2.75696e-09
0.0840003
2.1165e-08
0.0840005
6.33903e-08
0.0839999
2.06749e-07
0.0840015
4.79739e-07
0.0839977
1.3656e-06
0.0840085
3.07282e-06
0.0839848
8.41696e-06
0.0840467
1.91054e-05
0.0839293
5.1364e-05
0.0841699
0.000121814
0.083879
0.000325372
0.084387
0.000866134
0.0845788
0.00262132
0.0869336
0.00904632
0.100566
0.0381116
0.0954544
0.0814965
0.0912682
0.0815465
0.0876954
0.0803352
0.0858163
0.0815275
0.085248
0.0849817
0.0858306
0.0888593
0.0877569
0.0918515
0.090935
0.0931787
0.0915309
0.094507
0.0840003
2.85702e-09
0.0840003
1.55283e-08
0.0840004
5.98934e-08
0.0840003
1.51708e-07
0.0840005
4.40437e-07
0.0840005
1.00525e-06
0.0840007
2.75328e-06
0.0840045
6.17263e-06
0.0839983
1.65841e-05
0.0840317
3.79039e-05
0.0840126
9.95449e-05
0.0841542
0.000241081
0.0843121
0.000648629
0.0851334
0.00183714
0.0881361
0.00599746
0.102345
0.0238764
0.10134
0.0824588
0.0977212
0.0851613
0.0927006
0.0853506
0.0903703
0.0838608
0.0897437
0.0856052
0.0902882
0.0883091
0.0919115
0.0902117
0.0945116
0.0905617
0.0886514
0.097374
0.0840003
2.21346e-09
0.0840003
1.38355e-08
0.0840005
4.72363e-08
0.084
1.34745e-07
0.0840013
3.4998e-07
0.0839986
8.80692e-07
0.0840061
2.20723e-06
0.0839912
5.36134e-06
0.0840314
1.35412e-05
0.0839585
3.22061e-05
0.0841266
8.2642e-05
0.0839245
0.000200354
0.0843441
0.000531975
0.0844028
0.0014697
0.0859197
0.00468466
0.0919313
0.0177336
0.101796
0.0725298
0.0998191
0.0871294
0.0969716
0.0881945
0.0944383
0.0863869
0.0936397
0.0863998
0.094107
0.087833
0.0954275
0.0888861
0.0974237
0.0885449
0.0864085
0.0996396
0.0840003
1.81885e-09
0.0840003
1.16833e-08
0.0840003
3.99379e-08
0.0840003
1.14358e-07
0.0840005
2.96449e-07
0.0839998
7.60579e-07
0.0840028
1.85623e-06
0.0839952
4.70771e-06
0.084019
1.12968e-05
0.0839701
2.88223e-05
0.0840962
6.95114e-05
0.0839134
0.000178872
0.0842755
0.000453595
0.0841796
0.00125763
0.0852442
0.00385967
0.0889437
0.0138695
0.102508
0.0589035
0.102034
0.0876059
0.10003
0.0902007
0.0977474
0.0886729
0.096989
0.0871511
0.0973219
0.0874884
0.0983687
0.0878171
0.0998872
0.0870127
0.0847002
0.10157
0.0840003
1.51243e-09
0.0840003
9.67932e-09
0.0840004
3.29134e-08
0.0840002
9.44784e-08
0.0840007
2.44773e-07
0.0839996
6.24574e-07
0.0840035
1.54278e-06
0.0839952
3.84294e-06
0.0840202
9.43621e-06
0.0839733
2.33852e-05
0.0840992
5.78631e-05
0.0839225
0.000144631
0.0843168
0.000368112
0.0842269
0.000986851
0.0854719
0.00290743
0.0892833
0.00986755
0.109042
0.0390801
0.106788
0.0898524
0.105251
0.0917421
0.102438
0.0914866
0.100618
0.0889652
0.100393
0.0877051
0.101054
0.0871413
0.102128
0.0859019
0.0834583
0.103336
0.0840003
1.14944e-09
0.0840003
7.73309e-09
0.0840004
2.50806e-08
0.0840003
7.54904e-08
0.0840006
1.86186e-07
0.0839998
4.92423e-07
0.0840028
1.18278e-06
0.083997
2.95747e-06
0.0840164
7.25916e-06
0.0839826
1.76177e-05
0.0840863
4.40732e-05
0.0839497
0.000106496
0.0843224
0.000271893
0.0842619
0.00069858
0.085506
0.00197308
0.0889002
0.0062689
0.104195
0.0238018
0.111622
0.0823721
0.109592
0.0937597
0.10669
0.0943788
0.104345
0.0913035
0.103461
0.0885716
0.103645
0.0869375
0.104318
0.0852064
0.0825331
0.105186
0.0840003
9.17302e-10
0.0840003
5.92069e-09
0.0840003
2.01225e-08
0.0840004
5.78173e-08
0.0840002
1.49094e-07
0.0840008
3.8304e-07
0.0840003
9.28232e-07
0.0840015
2.35356e-06
0.0840034
5.61309e-06
0.0840007
1.41816e-05
0.0840276
3.40522e-05
0.084005
8.58955e-05
0.0841404
0.000211352
0.0841913
0.000547173
0.0847654
0.00149007
0.0863361
0.00459755
0.0934743
0.0166874
0.110723
0.0650108
0.111438
0.0930286
0.110037
0.0957657
0.107494
0.0938319
0.106354
0.0896953
0.106132
0.0871218
0.106423
0.0848777
0.0819079
0.106995
0.0840003
6.93675e-10
0.0840003
4.68174e-09
0.0840003
1.54849e-08
0.0840004
4.55996e-08
0.0840002
1.14966e-07
0.0840008
3.00848e-07
0.084
7.20485e-07
0.0840021
1.84917e-06
0.0840012
4.35951e-06
0.0840045
1.1212e-05
0.0840144
2.63893e-05
0.0840191
6.78678e-05
0.0840887
0.000164042
0.0841835
0.000423944
0.084564
0.00111953
0.0858403
0.00329914
0.0913298
0.011191
0.113981
0.0422398
0.114911
0.0920638
0.114215
0.0964491
0.112102
0.0959294
0.109676
0.0921002
0.108809
0.0879558
0.108767
0.0848537
0.0817514
0.108853
0.0840003
5.37441e-10
0.0840003
3.39792e-09
0.0840003
1.17709e-08
0.0840004
3.32052e-08
0.0840002
8.70191e-08
0.0840008
2.19003e-07
0.0839999
5.40631e-07
0.084003
1.34068e-06
0.0839983
3.23988e-06
0.0840152
8.08707e-06
0.0839924
1.93198e-05
0.0840711
4.86603e-05
0.0840085
0.000116994
0.0843069
0.00029849
0.0844202
0.000761515
0.0858187
0.00213537
0.0901445
0.00671005
0.107698
0.0246739
0.118627
0.0810608
0.117722
0.0973222
0.115412
0.0982101
0.112812
0.0946705
0.111719
0.0890004
0.111221
0.0852953
0.0819893
0.110889
0.0840003
4.18439e-10
0.0840003
2.45299e-09
0.0840003
9.03334e-09
0.0840004
2.38865e-08
0.0840003
6.66922e-08
0.0840006
1.58217e-07
0.0840001
4.14349e-07
0.0840022
9.76428e-07
0.0839983
2.47148e-06
0.0840125
5.94696e-06
0.0839892
1.46985e-05
0.0840668
3.61901e-05
0.0839627
8.83101e-05
0.0842678
0.000223083
0.0841401
0.000561716
0.0850901
0.00153127
0.0868804
0.00461291
0.095244
0.016427
0.117028
0.0591105
0.119185
0.0951244
0.119141
0.0982142
0.117146
0.0966262
0.114592
0.0914961
0.113591
0.0862058
0.0823636
0.113075
0.0840003
2.91468e-10
0.0840003
1.79838e-09
0.0840003
6.28954e-09
0.0840003
1.7533e-08
0.0840004
4.65115e-08
0.0840003
1.14934e-07
0.0840008
2.89467e-07
0.0840003
6.973e-07
0.0840023
1.74393e-06
0.0840024
4.15493e-06
0.0840065
1.04365e-05
0.0840211
2.48008e-05
0.0840302
6.23682e-05
0.084134
0.000150997
0.084261
0.000383407
0.0848398
0.000992389
0.0865689
0.00282703
0.093832
0.00916894
0.11986
0.0329104
0.123977
0.0909425
0.122821
0.0993221
0.12032
0.099072
0.117847
0.0938904
0.116305
0.0876249
0.0827698
0.115702
0.0840003
2.02819e-10
0.0840003
1.30836e-09
0.0840003
4.37149e-09
0.0840003
1.27755e-08
0.0840004
3.22797e-08
0.0840003
8.29846e-08
0.0840007
2.03547e-07
0.0840001
4.96904e-07
0.0840026
1.23945e-06
0.0839997
2.93361e-06
0.0840107
7.4448e-06
0.0840029
1.73485e-05
0.0840441
4.46668e-05
0.08405
0.000104175
0.0842223
0.000269978
0.084452
0.000668401
0.0855199
0.0018517
0.0889707
0.00563597
0.101634
0.0202083
0.123012
0.0694266
0.123632
0.0986163
0.124164
0.0984439
0.121974
0.0959518
0.119617
0.0897873
0.08326
0.118844
0.0840003
1.45001e-10
0.0840003
8.99995e-10
0.0840003
3.16166e-09
0.0840003
8.78873e-09
0.0840003
2.33196e-08
0.0840004
5.80039e-08
0.0840004
1.44055e-07
0.0840005
3.5485e-07
0.0840012
8.58901e-07
0.0840004
2.13196e-06
0.0840076
5.09673e-06
0.0839974
1.27643e-05
0.0840487
3.03976e-05
0.0839905
7.66484e-05
0.0842391
0.000185426
0.0841716
0.000474681
0.085082
0.00124099
0.0867975
0.00361359
0.0949535
0.0121852
0.121527
0.0426287
0.126897
0.0931187
0.124833
0.100343
0.124331
0.0962738
0.122723
0.0911467
0.0841897
0.12134
0.0840003
9.48834e-11
0.0840003
6.34142e-10
0.0840003
2.12321e-09
0.0840003
6.1857e-09
0.0840003
1.56603e-08
0.0840003
4.07513e-08
0.0840004
9.65286e-08
0.0840003
2.48025e-07
0.0840013
5.74795e-07
0.0839999
1.47839e-06
0.0840072
3.40663e-06
0.0839967
8.75447e-06
0.0840429
2.02646e-05
0.0839867
5.18394e-05
0.0842173
0.000122355
0.0840839
0.000313271
0.0849248
0.000787077
0.0859412
0.00218369
0.0915797
0.00676593
0.110175
0.0238453
0.127858
0.0752123
0.127264
0.10073
0.125967
0.0972831
0.125626
0.0910871
0.0831076
0.126161
0.0840003
6.97806e-11
0.0840003
4.2523e-10
0.0840003
1.4895e-09
0.0840003
4.14546e-09
0.0840003
1.09922e-08
0.0840003
2.69355e-08
0.0840004
6.86627e-08
0.0840003
1.61585e-07
0.0840009
4.13294e-07
0.0840007
9.5426e-07
0.0840023
2.46876e-06
0.084005
5.64042e-06
0.0840072
1.46598e-05
0.0840346
3.36679e-05
0.0840416
8.71233e-05
0.0841957
0.000206311
0.0843724
0.00053427
0.0852118
0.00139726
0.0877381
0.00413618
0.0973363
0.0142105
0.12438
0.0478456
0.129834
0.0949612
0.12939
0.0972191
0.129341
0.0904808
0.0812076
0.130501
0.0840003
4.35907e-11
0.0840003
2.7898e-10
0.0840003
9.58525e-10
0.0840003
2.72571e-09
0.0840003
7.05068e-09
0.0840003
1.78386e-08
0.0840004
4.33228e-08
0.0840003
1.08069e-07
0.0840008
2.56337e-07
0.0840002
6.40961e-07
0.0840036
1.50725e-06
0.0839989
3.77658e-06
0.0840215
8.86228e-06
0.0839933
2.22364e-05
0.0841182
5.24386e-05
0.0840075
0.000131904
0.0845191
0.000320404
0.084664
0.000832458
0.0868618
0.00229121
0.0934988
0.00724706
0.115864
0.0253212
0.131098
0.0791562
0.133089
0.094433
0.133879
0.0888045
0.0785512
0.13576
0.0840003
2.68858e-11
0.0840003
1.86983e-10
0.0840003
5.96538e-10
0.0840003
1.81012e-09
0.0840003
4.41361e-09
0.0840003
1.16807e-08
0.0840004
2.75355e-08
0.0840003
6.94204e-08
0.0840007
1.65676e-07
0.0840002
4.04434e-07
0.0840025
9.87759e-07
0.0839997
2.34796e-06
0.0840122
5.86137e-06
0.0839995
1.37027e-05
0.0840572
3.47505e-05
0.0840273
8.10406e-05
0.0842596
0.000207886
0.0843738
0.000508983
0.0854512
0.00138785
0.0882851
0.00412947
0.0987804
0.0146151
0.127571
0.0494648
0.134196
0.0864443
0.137209
0.0847229
0.0744546
0.140748
0.0840003
1.82493e-11
0.0840003
1.0584e-10
0.0840003
3.90496e-10
0.0840003
1.03847e-09
0.0840003
2.84026e-09
0.0840003
6.77523e-09
0.0840003
1.72567e-08
0.0840004
4.06581e-08
0.0840004
1.00152e-07
0.0840006
2.40273e-07
0.0840011
5.73464e-07
0.0840008
1.40391e-06
0.0840072
3.28648e-06
0.0839991
8.14094e-06
0.0840471
1.88386e-05
0.0839984
4.72701e-05
0.0842439
0.000110395
0.0841918
0.000280851
0.0851309
0.000710274
0.0868045
0.00202099
0.0947324
0.00658578
0.118611
0.0244974
0.130654
0.0718147
0.138484
0.0761172
0.0673419
0.144926
0.0840003
9.62993e-12
0.0840003
7.08145e-11
0.0840003
2.18704e-10
0.0840003
6.85666e-10
0.0840003
1.60829e-09
0.0840003
4.38331e-09
0.0840003
9.88407e-09
0.0840003
2.57372e-08
0.0840005
5.84338e-08
0.0840002
1.46712e-07
0.0840014
3.43211e-07
0.0839992
8.2731e-07
0.0840071
1.99831e-06
0.0839938
4.66244e-06
0.0840374
1.15779e-05
0.0839733
2.6337e-05
0.0841581
6.66848e-05
0.0840157
0.000155369
0.0845465
0.000403579
0.085036
0.00108538
0.0881475
0.00339746
0.0984035
0.0130287
0.117486
0.0496829
0.131563
0.0617161
0.0580858
0.140676
0.0840003
6.14703e-12
0.0840003
4.14188e-11
0.0840003
1.36923e-10
0.0840003
4.03741e-10
0.0840003
9.96962e-10
0.0840003
2.64091e-09
0.0840003
5.9776e-09
0.0840004
1.58639e-08
0.0840003
3.45826e-08
0.0840005
9.28929e-08
0.0840004
1.98133e-07
0.0840004
5.3825e-07
0.0840021
1.14487e-06
0.0839973
3.07699e-06
0.0840157
6.66133e-06
0.0839781
1.74778e-05
0.0840754
3.95246e-05
0.0839577
0.00010024
0.0842098
0.000246822
0.0842664
0.000675546
0.0853588
0.00205393
0.0895043
0.00762138
0.102246
0.033026
0.11796
0.0466044
0.0474194
0.129256
0.0840003
4.2806e-12
0.0840003
2.27109e-11
0.0840003
8.88102e-11
0.0840003
2.19452e-10
0.0840003
6.57371e-10
0.0840003
1.41325e-09
0.0840003
4.10704e-09
0.0840004
8.37867e-09
0.0840002
2.45805e-08
0.0840006
4.88613e-08
0.0839998
1.44598e-07
0.0840018
2.89004e-07
0.0839976
8.33945e-07
0.0840081
1.72094e-06
0.0839856
4.7933e-06
0.0840317
1.03763e-05
0.0839424
2.73458e-05
0.0840825
6.46733e-05
0.0838648
0.000166894
0.0841118
0.000449455
0.0841783
0.00137587
0.0855876
0.00502498
0.0905794
0.0233915
0.103153
0.0354691
0.04013
0.11167
0.0840003
2.52844e-12
0.0840003
1.45457e-11
0.0840003
5.40859e-11
0.0840003
1.43931e-10
0.0840003
3.9052e-10
0.0840003
9.89979e-10
0.0840003
2.29333e-09
0.0840003
6.41691e-09
0.0840003
1.25636e-08
0.0840003
4.11581e-08
0.0840004
6.98519e-08
0.0839998
2.5681e-07
0.0840014
3.98385e-07
0.083995
1.57477e-06
0.0840104
2.40912e-06
0.0839662
9.43575e-06
0.0840418
1.57396e-05
0.0838795
5.37553e-05
0.0840095
0.000116252
0.0837197
0.000350423
0.0837149
0.0010552
0.0833209
0.00394496
0.0828054
0.0189798
0.091449
0.0287841
0.0329066
0.100123
0.0840003
1.69757e-12
0.0840003
1.04949e-11
0.0840003
3.45432e-11
0.0840003
1.02089e-10
0.0840003
2.58122e-10
0.0840003
6.34938e-10
0.0840003
1.72826e-09
0.0840003
3.47713e-09
0.0840003
1.1599e-08
0.0840003
1.85553e-08
0.0840001
7.50207e-08
0.0840008
1.0357e-07
0.0839978
4.74455e-07
0.0840052
6.31095e-07
0.0839833
2.92607e-06
0.08403
4.21928e-06
0.0839117
1.76826e-05
0.0840733
3.15325e-05
0.0837527
0.000106079
0.0838583
0.000268791
0.0833827
0.000887849
0.0825499
0.00335468
0.0798389
0.0165953
0.0852095
0.0254274
0.0274105
0.0921561
0.0840003
1.29306e-12
0.0840003
6.65246e-12
0.0840003
2.59401e-11
0.0840003
6.63495e-11
0.0840003
1.87825e-10
0.0840003
4.29743e-10
0.0840003
1.19522e-09
0.0840003
2.65337e-09
0.0840003
7.09368e-09
0.0840003
1.69483e-08
0.0840004
4.20931e-08
0.0839997
1.06544e-07
0.0840017
2.5807e-07
0.0839944
6.71649e-07
0.0840115
1.60165e-06
0.0839638
4.30436e-06
0.0840512
1.04311e-05
0.0838517
2.85629e-05
0.0840386
7.47725e-05
0.0836352
0.000220874
0.0836007
0.000708421
0.0825146
0.00277052
0.0807876
0.0138612
0.0840224
0.0237191
0.0241619
0.0883754
0.0840003
1.00245e-12
0.0840003
4.12481e-12
0.0840003
2.13377e-11
0.0840003
3.94797e-11
0.0840003
1.5563e-10
0.0840003
2.81112e-10
0.0840003
9.0586e-10
0.0840003
1.92724e-09
0.0840003
5.15109e-09
0.0840003
1.29392e-08
0.0840005
2.96262e-08
0.0839995
8.61259e-08
0.084002
1.778e-07
0.0839943
5.55786e-07
0.0840124
1.09943e-06
0.0839644
3.6208e-06
0.0840596
7.10925e-06
0.0838559
2.32204e-05
0.0840929
5.25645e-05
0.0837063
0.000163521
0.083813
0.000500606
0.0832615
0.00190358
0.0835047
0.00942789
0.084769
0.0231331
0.0226688
0.0870387
0.0840003
3.01786e-13
0.0840003
5.80229e-12
0.0840003
1.07032e-11
0.0840003
5.71542e-11
0.0840003
8.0839e-11
0.0840003
3.99886e-10
0.0840003
4.11302e-10
0.0840003
2.604e-09
0.0840004
1.89492e-09
0.0840002
1.6461e-08
0.0840007
1.08499e-08
0.0839991
1.00093e-07
0.084003
7.88817e-08
0.0839934
5.91734e-07
0.0840151
6.69842e-07
0.0839637
3.35611e-06
0.0840612
5.46021e-06
0.0838679
1.89756e-05
0.0840987
4.30298e-05
0.0837425
0.000128208
0.0838915
0.000392338
0.0836462
0.00141668
0.0844396
0.0067014
0.0851634
0.0212139
0.0215409
0.0865584
0.0840003
1.08011e-12
0.0840003
2.54474e-12
0.0840003
1.90902e-11
0.0840003
2.48275e-11
0.0840003
1.40052e-10
0.0840003
1.40699e-10
0.0840003
9.03069e-10
0.0840003
7.22935e-10
0.0840003
5.59614e-09
0.0840004
4.38813e-09
0.084
3.31626e-08
0.084001
3.26866e-08
0.083998
1.93126e-07
0.0840052
2.62296e-07
0.083986
1.07805e-06
0.0840295
2.03502e-06
0.083929
6.04961e-06
0.0840954
1.46504e-05
0.0838152
3.75974e-05
0.0840505
0.000107307
0.0837343
0.000325156
0.0837354
0.00116069
0.0836925
0.00535002
0.0847166
0.0186693
0.0199017
0.0862103
0.0840003
4.21786e-13
0.0840003
3.17512e-12
0.0840003
8.71593e-12
0.0840003
3.10736e-11
0.0840003
6.95093e-11
0.0840003
1.89726e-10
0.0840003
5.06126e-10
0.0840003
1.07416e-09
0.0840004
3.42118e-09
0.0840002
6.29325e-09
0.0840007
2.24234e-08
0.0839995
3.71997e-08
0.0840022
1.46158e-07
0.083996
2.26944e-07
0.0840072
9.49554e-07
0.0839828
1.41519e-06
0.08402
5.94457e-06
0.0839414
1.04502e-05
0.0840294
3.56004e-05
0.0838522
8.72961e-05
0.0839091
0.000281975
0.0837344
0.000975352
0.0836189
0.00444027
0.0845444
0.016437
0.0184093
0.0858993
0.0840003
2.15583e-13
0.0840003
2.23044e-12
0.0840003
6.60474e-12
0.0840003
2.29916e-11
0.0840003
4.72745e-11
0.0840003
1.78571e-10
0.0840003
2.82861e-10
0.0840003
1.28904e-09
0.0840004
1.59233e-09
0.0840002
9.26352e-09
0.0840007
8.45121e-09
0.0839993
6.25862e-08
0.0840029
4.99302e-08
0.0839939
4.05071e-07
0.0840151
2.37692e-07
0.0839663
2.48507e-06
0.0840654
2.32881e-06
0.0838739
1.36318e-05
0.0841332
2.42148e-05
0.0837775
8.14319e-05
0.0839996
0.000234916
0.0837393
0.000825025
0.0836859
0.00368738
0.0846367
0.014252
0.0163274
0.0862636
0.0840003
4.34231e-13
0.0840003
2.00685e-12
0.0840003
7.0487e-12
0.0840003
1.91526e-11
0.0840003
5.45976e-11
0.0840003
1.13496e-10
0.0840003
4.11221e-10
0.0840003
6.41447e-10
0.0840003
3.10287e-09
0.0840003
3.04573e-09
0.0840003
2.27812e-08
0.0840003
1.48044e-08
0.0839996
1.53441e-07
0.0840019
6.09024e-08
0.0839923
9.45212e-07
0.0840151
6.05142e-07
0.0839587
5.37797e-06
0.0840505
6.86481e-06
0.0839017
2.7624e-05
0.0840168
6.4228e-05
0.0838572
0.000205369
0.0838103
0.000697693
0.0837292
0.00303191
0.0847222
0.0120955
0.013945
0.0865969
0.0840003
-2.16297e-13
0.0840003
3.35123e-12
0.0840003
-5.81169e-13
0.0840003
3.45934e-11
0.0840003
-1.2367e-12
0.0840003
2.36927e-10
0.0840003
-6.47873e-12
0.0840003
1.49729e-09
0.0840004
1.08683e-10
0.0840002
9.03431e-09
0.0840007
9.08068e-10
0.0839993
5.13469e-08
0.0840027
3.04628e-08
0.0839948
2.8419e-07
0.0840132
3.8834e-07
0.0839712
1.47348e-06
0.0840552
3.34581e-06
0.0838969
8.051e-06
0.0841141
2.2947e-05
0.0838174
5.47777e-05
0.0840157
0.000177982
0.0838064
0.000581327
0.0837746
0.00245943
0.0847558
0.0100244
0.0114207
0.0867583
0.0840003
4.45254e-13
0.0840003
-1.10362e-13
0.0840003
8.27325e-12
0.0840003
-4.29238e-13
0.0840003
5.74849e-11
0.0840003
3.50372e-11
0.0840003
3.08382e-10
0.0840003
4.48073e-10
0.0840003
1.68858e-09
0.0840005
4.04513e-09
0.0839999
9.41213e-09
0.0840012
3.2321e-08
0.0839983
4.91447e-08
0.084005
2.3457e-07
0.0839898
3.2253e-07
0.0840221
1.57443e-06
0.083954
1.73513e-06
0.0840709
9.21264e-06
0.0838767
1.37653e-05
0.0840834
5.28712e-05
0.0838452
0.000138334
0.0839291
0.000480474
0.0837905
0.00195178
0.0847328
0.00809446
0.00867407
0.0869497
0.0840003
4.64711e-13
0.0840003
1.66278e-13
0.0840003
6.16374e-12
0.0840003
1.18807e-12
0.0840003
4.95767e-11
0.0840003
-1.68939e-12
0.0840003
3.95789e-10
0.0840003
-8.19148e-11
0.0840003
2.68402e-09
0.0840004
-5.09306e-10
0.0840001
1.72469e-08
0.0840009
-1.12781e-09
0.0839984
1.02728e-07
0.0840049
4.763e-09
0.0839879
5.73566e-07
0.0840294
2.75154e-07
0.0839366
3.08062e-06
0.0841099
3.85427e-06
0.0838273
1.54621e-05
0.0841358
3.46239e-05
0.0838252
0.000107835
0.0840349
0.000364103
0.0838217
0.00148731
0.0847036
0.0062744
0.00602713
0.0871149
0.0840003
1.47061e-13
0.0840003
-1.49307e-13
0.0840003
3.0176e-12
0.0840003
-2.09516e-13
0.0840003
2.00042e-11
0.0840003
2.06622e-11
0.0840003
9.86915e-11
0.0840003
2.21712e-10
0.0840004
5.7159e-10
0.0840002
1.72105e-09
0.0840007
3.58221e-09
0.0839994
1.3528e-08
0.0840026
2.77723e-08
0.0839952
9.6961e-08
0.0840128
1.82347e-07
0.0839736
6.88686e-07
0.0840537
9.18992e-07
0.083905
4.25134e-06
0.0841195
7.10744e-06
0.0838311
2.52709e-05
0.0840496
6.90596e-05
0.0840091
0.000239502
0.0839161
0.0010028
0.084995
0.00429829
0.0039169
0.0869292
0.0840003
-6.02025e-13
0.0840003
2.67101e-12
0.0840003
-7.69921e-12
0.0840003
2.5894e-11
0.0840003
-4.86916e-11
0.0840003
1.55658e-10
0.0840003
-2.61063e-10
0.0840003
8.66584e-10
0.0840004
-1.20275e-09
0.0840002
4.35089e-09
0.0840007
-4.921e-09
0.0839996
1.82298e-08
0.0840022
-3.87168e-09
0.0839965
5.92601e-08
0.0840083
1.16433e-07
0.0839835
7.93958e-08
0.0840268
1.48845e-06
0.0839467
-7.27843e-09
0.0840587
8.07911e-06
0.083887
8.09064e-06
0.0840138
4.0746e-05
0.0839811
0.000114355
0.0839131
0.000506129
0.0851952
0.0021931
0.00192736
0.0869671
0.0840003
0.0840003
0.0840003
0.0840003
0.0840003
0.0840003
0.0840003
0.0840003
0.0840003
0.0840005
0.084
0.0840012
0.0839985
0.0840047
0.0839914
0.084018
0.0839639
0.0840573
0.0839001
0.084082
0.0838811
0.0839817
0.0839022
0.0852915
0.0869984
0.0393054
0.0434376
0.0149418
0.0242796
-0.00779332
0.0226961
-0.0171966
0.00940412
-0.0238763
0.00667407
-0.0270786
0.00320459
-0.0281109
0.00104184
-0.029532
0.00143288
-0.0311732
0.00165033
-0.0325198
0.00135596
-0.0333302
0.000819811
-0.0336821
0.000350021
-0.0340421
0.000331506
-0.034389
0.000310725
-0.0344801
4.78534e-05
-0.0342187
-0.000321011
-0.0336598
-0.000623635
-0.032833
-0.000898186
-0.0317508
-0.00115033
-0.0305178
-0.00129735
-0.0291781
-0.00139773
-0.0277604
-0.00147079
-0.0262762
-0.00152856
-0.0247321
-0.00158825
-0.0231172
-0.00165308
-0.0214374
-0.00172165
-0.0196743
-0.00180305
-0.0178468
-0.00187136
-0.015918
-0.00197807
-0.0139088
-0.00206061
-0.0118469
-0.00211651
-0.00977181
-0.00213126
-0.00768135
-0.00214677
-0.00556869
-0.00217061
-0.00342447
-0.00219879
-0.00124563
-0.00222693
0.00100775
-0.00229906
0.00320641
-0.00224122
0.0053173
-0.00214746
0.00736262
-0.00207565
0.00936155
-0.00202207
0.0113001
-0.00195719
0.0131759
-0.00188719
0.0149826
-0.00181659
0.0167527
-0.00177135
0.0185196
-0.00175956
0.020241
-0.00170944
0.0219066
-0.0016467
0.0235125
-0.00157802
0.0250594
-0.00151545
0.0265491
-0.0014522
0.0279901
-0.00139581
0.029377
-0.00133744
0.0307157
-0.00128251
0.0320005
-0.00122719
0.0332349
-0.001174
0.0344217
-0.00112165
0.0355565
-0.00107154
0.0366429
-0.00102172
0.0376813
-0.000974761
0.0386732
-0.000928
0.0396155
-0.00088414
0.0405107
-0.000839992
0.0413618
-0.000799073
0.0421636
-0.000757661
0.0429269
-0.000718961
0.0436416
-0.000680314
0.0443168
-0.000643356
0.0449482
-0.000606993
0.0455374
-0.000571697
0.0460875
-0.000537062
0.0465965
-0.000503406
0.047068
-0.000470308
0.0475012
-0.000438248
0.0478995
-0.000406721
0.0482615
-0.000376316
0.0485929
-0.000346459
0.0488908
-0.000317851
0.0491617
-0.000289802
0.0494038
-0.000263045
0.0496202
-0.000236858
0.0498141
-0.000211823
0.049982
-0.000187541
0.0501334
-0.000164366
0.0502598
-0.000141967
0.0503718
-0.00012084
0.0504635
-0.000101192
0.0505404
-8.23274e-05
0.0506006
-6.37204e-05
0.0506459
-4.75723e-05
0.0506784
-3.21635e-05
0.0506958
-1.73609e-05
0.0507008
-3.30378e-06
0.0506934
8.72819e-06
0.0506747
2.07551e-05
0.0506426
3.35125e-05
0.0505957
4.75998e-05
0.0505311
6.40505e-05
0.0504445
8.55015e-05
0.000109962
0.0576011
0.064358
0.0408643
0.0409419
0.0321475
0.031383
0.0187771
0.0228048
0.0097716
0.0156862
0.00136835
0.0116128
-0.00634764
0.00877547
-0.0117918
0.00689947
-0.0152743
0.00515362
-0.0174647
0.00355703
-0.0187715
0.00213439
-0.0193497
0.00094051
-0.0195455
0.000516969
-0.0196379
0.000384994
-0.0194382
-0.000184417
-0.018962
-0.00085128
-0.0181805
-0.00146853
-0.0171063
-0.00203956
-0.0157748
-0.00255453
-0.0143635
-0.00277603
-0.0128851
-0.00293971
-0.0113477
-0.00306694
-0.00975036
-0.00318035
-0.00808714
-0.00330349
-0.00634869
-0.00344337
-0.00452974
-0.00358775
-0.00264623
-0.00373424
-0.000663471
-0.00390308
0.00135289
-0.00404888
0.00337076
-0.00413644
0.00537693
-0.00418174
0.007408
-0.00422213
0.00944769
-0.00424757
0.0114835
-0.00426704
0.0134937
-0.0042673
0.0154729
-0.00426493
0.0173646
-0.00424609
0.0192546
-0.00418464
0.021135
-0.00407916
0.0229953
-0.00397857
0.0248072
-0.00387235
0.0265773
-0.00376088
0.0282959
-0.00363323
0.0299627
-0.00350757
0.0315669
-0.00339504
0.0331172
-0.00331723
0.0346368
-0.00323447
0.0361122