/*--------------------------------*- C++ -*----------------------------------*\
  =========                 |
  \\      /  F ield         | OpenFOAM: The Open Source CFD Toolbox
   \\    /   O peration     | Website:  https://openfoam.org
    \\  /    A nd           | Version:  13
     \\/     M anipulation  |
\*---------------------------------------------------------------------------*/
FoamFile
{
    format      ascii;
    class       volScalarField;
    location    "9";
    object      rho;
}
// * * * * * * * * * * * * * * * * * * * * * * * * * * * * * * * * * * * * * //

dimensions      [1 -3 0 0 0 0 0];

internalField   nonuniform List<scalar> 
5250
(
1.40001
1.40003
1.40008
1.40021
1.40049
1.40129
1.40302
1.40767
1.41833
1.44487
1.50496
1.6383
1.9153
2.62606
5.3436
5.73617
5.68003
5.66508
5.6876
5.76838
5.85213
5.90477
5.94546
5.97882
6.00536
1.40001
1.40003
1.40007
1.40022
1.40046
1.40134
1.40284
1.40795
1.41742
1.44552
1.50253
1.6373
1.9098
2.61105
5.30535
5.73438
5.67862
5.66235
5.685
5.76592
5.84969
5.90268
5.9443
5.97853
6.00613
1.40001
1.40003
1.40008
1.40019
1.40051
1.40118
1.40303
1.40724
1.418
1.44305
1.50223
1.63075
1.9015
2.57839
5.22034
5.73064
5.67451
5.65312
5.67516
5.75419
5.8374
5.88924
5.93114
5.96465
5.99219
1.40001
1.40003
1.40008
1.40019
1.40049
1.40113
1.40298
1.40682
1.41777
1.44093
1.49961
1.62303
1.88758
2.53019
5.08589
5.72751
5.66921
5.63732
5.65744
5.73362
5.81422
5.86578
5.90601
5.94015
5.96789
1.40001
1.40003
1.40007
1.40018
1.40046
1.40108
1.40284
1.40648
1.41694
1.43895
1.49514
1.61335
1.86784
2.46811
4.89845
5.72759
5.66402
5.61553
5.63301
5.70494
5.78236
5.83078
5.86946
5.90166
5.93104
1.40001
1.40002
1.40007
1.40016
1.40045
1.40098
1.4027
1.40603
1.41592
1.43646
1.48961
1.60091
1.84265
2.39339
4.65168
5.73491
5.66052
5.58816
5.60222
5.66755
5.74184
5.78575
5.82114
5.85152
5.88196
1.40001
1.40002
1.40007
1.40015
1.4004
1.40093
1.40241
1.40571
1.41426
1.4342
1.48187
1.58701
1.81114
2.3081
4.33972
5.752
5.66129
5.5557
5.56528
5.62029
5.68883
5.72668
5.75474
5.77931
5.81044
1.40001
1.40002
1.40006
1.40014
1.40036
1.40086
1.40212
1.40526
1.4126
1.43117
1.47345
1.57027
1.7746
2.21483
3.95882
5.78425
5.66944
5.52146
5.52485
5.56717
5.62466
5.65258
5.66945
5.68151
5.70821
1.40001
1.40002
1.40005
1.40012
1.40033
1.40071
1.40201
1.40425
1.41189
1.42601
1.46675
1.54925
1.73617
2.11812
3.5251
5.81488
5.68331
5.48903
5.48185
5.50639
5.54942
5.55917
5.55671
5.54259
5.54758
1.40001
1.40002
1.40004
1.40011
1.40026
1.40068
1.40158
1.404
1.40961
1.42359
1.45621
1.53165
1.69335
2.02816
3.05425
5.80604
5.6871
5.46859
5.43836
5.44175
5.46072
5.44993
5.41828
5.34904
5.29391
1.40001
1.40002
1.40004
1.4001
1.40022
1.40062
1.4013
1.40369
1.40792
1.42151
1.44788
1.51762
1.65876
1.96101
2.788
5.59172
5.58681
5.45027
5.37902
5.36958
5.35789
5.32401
5.2335
5.02283
4.4279
1.40001
1.40001
1.40004
1.40008
1.40022
1.40047
1.40127
1.40291
1.4075
1.41757
1.44373
1.50105
1.6312
1.89939
2.57173
5.1415
5.46341
5.40268
5.312
5.28946
5.25525
5.18673
5.04122
4.74631
4.11855
1.40001
1.40001
1.40003
1.40007
1.40018
1.40042
1.40105
1.40259
1.40624
1.41558
1.43697
1.48865
1.60118
1.84029
2.38694
4.61119
5.39444
5.35763
5.2531
5.20331
5.15323
5.05598
4.86815
4.56351
4.08457
1.40001
1.40001
1.40003
1.40006
1.40016
1.40033
1.40095
1.40202
1.4056
1.41235
1.43249
1.47326
1.57388
1.77751
2.22386
4.00969
5.36853
5.33019
5.21002
5.12363
5.05154
4.9371
4.74789
4.46519
4.09284
1.40001
1.40001
1.40002
1.40006
1.40012
1.40031
1.40069
1.40182
1.40422
1.41074
1.42532
1.46182
1.54179
1.71682
2.07383
3.34695
5.3422
5.31201
5.19203
5.05684
4.96289
4.83776
4.65527
4.40798
4.09609
1.40001
1.40001
1.40002
1.40004
1.40011
1.40022
1.40062
1.40131
1.40367
1.4079
1.42132
1.4475
1.51623
1.65575
1.94889
2.74512
5.18998
5.26964
5.18529
5.0091
4.89041
4.76455
4.58719
4.36116
4.09348
1.40001
1.40001
1.40002
1.40004
1.40008
1.4002
1.40045
1.40115
1.40272
1.40676
1.41638
1.43951
1.49323
1.61184
1.85967
2.44497
4.69817
5.17286
5.12093
4.976
4.83102
4.70123
4.53617
4.32784
4.08808
1.40001
1.40001
1.40001
1.40003
1.40006
1.40016
1.40034
1.40095
1.40204
1.40561
1.41238
1.43247
1.47316
1.57329
1.77548
2.21565
3.96522
5.08295
5.05743
4.95402
4.79037
4.64858
4.49252
4.30173
4.08588
1.40001
1.40001
1.40001
1.40002
1.40005
1.40013
1.40027
1.40071
1.40162
1.40419
1.40976
1.42449
1.45717
1.53484
1.69768
2.02833
3.16501
4.99864
5.02283
4.95198
4.77935
4.61513
4.45911
4.28499
4.08738
1.40001
1.40001
1.40001
1.40002
1.40004
1.4001
1.4002
1.40054
1.40121
1.40315
1.40728
1.4184
1.44296
1.50252
1.6292
1.88849
2.54123
4.71465
5.0005
4.93836
4.7832
4.59552
4.438
4.27431
4.09958
1.40001
1.40001
1.40001
1.40002
1.40003
1.40007
1.40015
1.40042
1.40087
1.40248
1.4052
1.41445
1.43151
1.47973
1.57634
1.79038
2.2423
4.02424
4.91232
4.88463
4.78567
4.59301
4.42781
4.27343
4.11141
1.40001
1.40001
1.40001
1.40001
1.40002
1.40005
1.40012
1.4003
1.40065
1.4018
1.40384
1.41061
1.42316
1.45937
1.53231
1.69921
2.02
3.16501
4.79017
4.84527
4.7818
4.62146
4.44022
4.28755
4.13388
1.40001
1.40001
1.40001
1.40001
1.40002
1.40004
1.40009
1.4002
1.4005
1.40122
1.40288
1.40732
1.41689
1.44216
1.4963
1.62014
1.86045
2.46233
4.45583
4.82624
4.77745
4.65108
4.46937
4.31251
4.16682
1.40001
1.40001
1.40001
1.40001
1.40002
1.40003
1.40007
1.40014
1.40037
1.40083
1.40216
1.40499
1.41257
1.4296
1.47106
1.56193
1.75446
2.15001
3.68708
4.75298
4.73789
4.6718
4.51305
4.34996
4.21617
1.40001
1.40001
1.40001
1.40001
1.40001
1.40002
1.40005
1.4001
1.40026
1.40057
1.40155
1.40331
1.40909
1.41974
1.45095
1.51292
1.65823
1.92308
2.72974
4.55888
4.74837
4.69719
4.57395
4.41111
4.29654
1.40001
1.40001
1.40001
1.40001
1.40001
1.40002
1.40003
1.40008
1.40018
1.40041
1.40105
1.40236
1.40622
1.41386
1.43564
1.48011
1.58706
1.79518
2.26751
4.00674
4.70952
4.69539
4.64304
4.51352
4.41506
1.40001
1.40001
1.40001
1.40001
1.40001
1.40001
1.40002
1.40006
1.40011
1.40031
1.40065
1.4018
1.40385
1.41044
1.42302
1.45844
1.52992
1.69277
1.99831
3.08859
4.56113
4.72175
4.69417
4.63415
4.58849
1.40001
1.40001
1.40001
1.40001
1.40001
1.40001
1.40002
1.40004
1.40008
1.40021
1.40045
1.40118
1.40269
1.40684
1.41592
1.43916
1.48989
1.60547
1.82548
2.36465
4.16455
4.72437
4.78796
4.7778
4.78712
1.40001
1.40001
1.40001
1.40001
1.40001
1.40001
1.40001
1.40003
1.40006
1.40013
1.40034
1.40072
1.40201
1.40425
1.41164
1.4254
1.46435
1.54274
1.71764
2.05512
3.29963
4.6266
4.93487
4.99784
5.06487
1.40001
1.40001
1.40001
1.40001
1.40001
1.40001
1.40001
1.40002
1.40004
1.4001
1.40021
1.40055
1.40121
1.40315
1.40721
1.41812
1.44214
1.49984
1.62266
1.85774
2.47328
4.33103
5.09838
5.31421
5.41014
1.40001
1.40001
1.40001
1.40001
1.40001
1.40001
1.40001
1.40002
1.40003
1.40007
1.40015
1.40036
1.40089
1.40209
1.40532
1.4122
1.43078
1.47038
1.56467
1.7557
2.16236
3.62421
5.23121
5.67702
5.74841
1.40001
1.40001
1.40001
1.40001
1.40001
1.40001
1.40001
1.40001
1.40002
1.40005
1.4001
1.40028
1.40059
1.40163
1.4035
1.4095
1.42095
1.45363
1.51967
1.67422
1.97044
2.82291
5.17503
6.03262
6.03976
1.40001
1.40001
1.40001
1.40001
1.40001
1.40001
1.40001
1.40001
1.40002
1.40004
1.40008
1.40021
1.40048
1.40123
1.4029
1.40724
1.41742
1.44234
1.49954
1.62784
1.89607
2.57474
4.9112
6.1947
6.21117
1.40001
1.40001
1.40001
1.40001
1.40001
1.40001
1.40001
1.40001
1.40002
1.40003
1.40007
1.40018
1.40038
1.40108
1.4023
1.40648
1.41417
1.43765
1.48511
1.60228
1.84174
2.4401
4.5428
6.2254
6.22385
1.40001
1.40001
1.40001
1.40001
1.40001
1.40001
1.40001
1.40001
1.40002
1.40003
1.40006
1.40015
1.40036
1.40091
1.40212
1.40559
1.41291
1.43338
1.47753
1.58395
1.80579
2.36201
4.23523
6.23166
6.15073
1.40001
1.40001
1.40001
1.40001
1.40001
1.40001
1.40001
1.40001
1.40001
1.40003
1.40005
1.40015
1.4003
1.40087
1.40185
1.40527
1.41158
1.43117
1.47112
1.57214
1.77863
2.30136
3.99786
6.23825
6.04597
1.40001
1.40001
1.40001
1.40001
1.40001
1.40001
1.40001
1.40001
1.40001
1.40002
1.40006
1.40012
1.40033
1.40069
1.40198
1.4043
1.41197
1.42695
1.46931
1.5584
1.75883
2.24054
3.7802
6.25326
5.95878
1.40001
1.40001
1.40001
1.40001
1.40001
1.40001
1.40001
1.40001
1.40001
1.40003
1.40005
1.40013
1.40027
1.40076
1.40162
1.40456
1.41012
1.42725
1.4621
1.55208
1.73598
2.17362
3.56337
6.28395
5.92535
1.40001
1.40001
1.40001
1.40001
1.40001
1.40001
1.40001
1.40001
1.40001
1.40002
1.40005
1.40012
1.40025
1.40072
1.40156
1.4043
1.40968
1.42558
1.45884
1.54281
1.71706
2.10299
3.35534
6.29227
5.90923
1.40001
1.40001
1.40001
1.40001
1.40001
1.40001
1.40001
1.40001
1.40001
1.40002
1.40005
1.40011
1.40026
1.40066
1.40158
1.40394
1.40972
1.42373
1.4575
1.5353
1.70414
2.05569
3.19547
6.24838
5.89612
1.40001
1.40001
1.40001
1.40001
1.40001
1.40001
1.40001
1.40001
1.40001
1.40002
1.40005
1.4001
1.40028
1.40059
1.40163
1.40365
1.40971
1.42241
1.45634
1.52954
1.69467
2.02718
3.09498
6.14489
5.87521
1.40001
1.40001
1.40001
1.40001
1.40001
1.40001
1.40001
1.40001
1.40001
1.40002
1.40005
1.4001
1.40026
1.40059
1.40157
1.40353
1.40951
1.42155
1.45488
1.52551
1.68616
2.00647
3.01493
6.04458
5.85069
1.40001
1.40001
1.40001
1.40001
1.40001
1.40001
1.40001
1.40001
1.40001
1.40002
1.40004
1.40011
1.40024
1.40061
1.40144
1.40363
1.40885
1.4217
1.45235
1.52339
1.67772
1.99066
2.9477
5.95278
5.82045
1.40001
1.40001
1.40001
1.40001
1.40001
1.40001
1.40001
1.40001
1.40001
1.40002
1.40005
1.40009
1.40026
1.40054
1.40154
1.40329
1.40918
1.42028
1.45249
1.51886
1.6728
1.97675
2.89171
5.86852
5.7847
1.40001
1.40001
1.40001
1.40001
1.40001
1.40001
1.40001
1.40001
1.40001
1.40002
1.40004
1.4001
1.40023
1.40058
1.40141
1.40342
1.4086
1.42053
1.45037
1.51769
1.66615
1.96828
2.84539
5.79383
5.75121
1.40001
1.40001
1.40001
1.40001
1.40001
1.40001
1.40001
1.40001
1.40001
1.40002
1.40004
1.4001
1.40023
1.40057
1.40135
1.4035
1.40812
1.42081
1.44858
1.5165
1.66086
1.96433
2.80698
5.73089
5.7224
1.40001
1.40001
1.40001
1.40001
1.40001
1.40001
1.40001
1.40001
1.40001
1.40002
1.40005
1.40009
1.40024
1.40052
1.40144
1.40319
1.40852
1.41952
1.44931
1.51309
1.65857
1.96096
2.77809
5.68075
5.69827
1.40001
1.40001
1.40001
1.40001
1.40001
1.40001
1.40001
1.40001
1.40001
1.40002
1.40004
1.4001
1.40022
1.40055
1.40135
1.40327
1.40825
1.41957
1.44831
1.51252
1.65506
1.95784
2.75647
5.63964
5.69401
1.40001
1.40001
1.40001
1.40001
1.40001
1.40001
1.40001
1.40001
1.40001
1.40002
1.40004
1.40009
1.40023
1.40053
1.40139
1.40316
1.40837
1.41908
1.44845
1.51099
1.6537
1.9542
2.74004
5.61192
5.69458
1.40001
1.40001
1.40001
1.40001
1.40001
1.40001
1.40001
1.40001
1.40001
1.40002
1.40004
1.40009
1.40022
1.40056
1.40129
1.4034
1.40773
1.42022
1.44644
1.51265
1.65109
1.95343
2.73102
5.59759
5.69547
2.25472
1.84731
2.14734
1.97235
1.8752
1.8526
1.83878
1.80724
1.77233
1.74296
1.7197
1.69744
1.68533
1.68078
1.67975
1.68978
1.70943
1.73923
1.77298
1.80976
1.84623
1.88325
1.91866
1.95375
1.98836
2.02165
2.05558
2.0868
2.11928
2.14971
2.17928
2.20683
2.23206
2.25624
2.27836
2.29765
2.31392
2.32993
2.34448
2.35544
2.36574
2.37356
2.3794
2.38425
2.38684
2.38912
2.38785
2.38664
2.38333
2.38038
2.3742
2.36896
2.36108
2.35367
2.34433
2.33475
2.32375
2.31295
2.30009
2.28805
2.27388
2.26083
2.24515
2.23104
2.21442
2.19899
2.18202
2.16527
2.14783
2.13022
2.11203
2.09398
2.07514
2.05675
2.03748
2.01893
1.99931
1.98086
1.96102
1.9428
1.92298
1.90495
1.88553
1.86754
1.84881
1.83085
1.8129
1.7952
1.7779
1.76075
1.74408
1.72772
1.71174
1.69643
1.68156
1.66773
1.65466
1.64324
1.63321
1.62738
2.77902
2.40864
2.34083
2.0965
1.88744
1.8409
1.78363
1.72157
1.66875
1.62864
1.60331
1.58606
1.57074
1.56339
1.55979
1.56795
1.58907
1.62088
1.66021
1.70183
1.74513
1.78866
1.83219
1.87533
1.91889
1.9602
1.99849
2.03791
2.07553
2.11481
2.15011
2.18569
2.21769
2.24855
2.27548
2.30231
2.32509
2.34926
2.36831
2.38692
2.40172
2.41537
2.42552
2.43536
2.44252
2.44881
2.45128
2.45281
2.45296
2.45136
2.44908
2.44527
2.44007
2.43381
2.42617
2.41785
2.40821
2.39833
2.38684
2.37537
2.36248
2.34914
2.33523
2.32008
2.30521
2.2887
2.27273
2.25528
2.23824
2.22004
2.2021
2.18332
2.16464
2.14551
2.12622
2.107
2.08723
2.0681
2.04809
2.02904
2.00913
1.99006
1.97056
1.95141
1.93246
1.91341
1.89502
1.87631
1.85835
1.84028
1.82297
1.8058
1.78925
1.77319
1.75772
1.74317
1.72949
1.71742
1.70672
1.70042
3.27934
2.82016
2.5773
2.3791
2.14202
2.0175
1.86218
1.75383
1.67257
1.62066
1.58799
1.55101
1.52468
1.50906
1.50326
1.51475
1.53958
1.57439
1.61923
1.66574
1.71518
1.76457
1.8143
1.86367
1.9122
1.96023
2.0081
2.05652
2.10371
2.15127
2.19617
2.2401
2.28141
2.31992
2.35644
2.39021
2.42167
2.45055
2.4771
2.50006
2.52058
2.53739
2.55276
2.56456
2.57616
2.58413
2.58978
2.59286
2.59474
2.59486
2.59335
2.59034
2.58529
2.57961
2.57158
2.56346
2.55309
2.54251
2.53023
2.51729
2.50331
2.48844
2.47284
2.45654
2.43941
2.42194
2.40343
2.38486
2.36515
2.34566
2.32492
2.3048
2.28322
2.26276
2.2406
2.21999
2.19751
2.17679
2.15435
2.13347
2.1114
2.09037
2.06892
2.04786
2.02708
2.00625
1.98633
1.96605
1.94689
1.92728
1.90875
1.88999
1.87236
1.85467
1.83827
1.82208
1.80757
1.79388
1.78238
1.77465
3.53014
3.07436
2.76969
2.56415
2.37699
2.22476
2.11073
1.96232
1.83744
1.71593
1.65057
1.60236
1.56834
1.54873
1.54491
1.55443
1.58027
1.62279
1.6715
1.72308
1.77781
1.83322
1.89014
1.9465
2.00309
2.0595
2.11537
2.17095
2.2243
2.27737
2.32682
2.37498
2.41886
2.46086
2.499
2.53453
2.56678
2.59654
2.62261
2.64629
2.66533
2.68291
2.69532
2.70757
2.71651
2.72503
2.72828
2.73031
2.72894
2.72854
2.72451
2.72085
2.71382
2.7067
2.69725
2.68705
2.67558
2.66272
2.64943
2.6344
2.6195
2.60278
2.58647
2.56835
2.55079
2.53145
2.51277
2.4924
2.47273
2.45154
2.43102
2.40922
2.38798
2.36574
2.34394
2.32138
2.29931
2.27652
2.25452
2.23152
2.20986
2.18673
2.16563
2.14271
2.12228
2.09969
2.07964
2.05755
2.03803
2.01666
1.99772
1.97729
1.95917
1.93998
1.92304
1.90557
1.89046
1.87571
1.86348
1.85497
3.66236
3.2581
2.95046
2.72374
2.55406
2.40131
2.2878
2.17528
2.06254
1.96343
1.86953
1.79822
1.74759
1.71558
1.70429
1.71103
1.73106
1.76917
1.82003
1.87664
1.9347
1.99533
2.05587
2.11622
2.17676
2.23531
2.29395
2.34879
2.40346
2.45329
2.50247
2.54575
2.58797
2.62437
2.65911
2.68863
2.7165
2.73949
2.76134
2.77818
2.7941
2.80531
2.8153
2.82209
2.82891
2.83314
2.83507
2.8326
2.829
2.82405
2.81839
2.81084
2.80265
2.79224
2.78164
2.76871
2.75596
2.74088
2.72614
2.70919
2.69268
2.67412
2.65605
2.63617
2.61676
2.59585
2.57526
2.55356
2.53193
2.50971
2.48721
2.46472
2.44162
2.41905
2.39564
2.37306
2.34963
2.32706
2.30386
2.28143
2.25878
2.23666
2.21455
2.19271
2.17107
2.14969
2.12842
2.10764
2.08684
2.06677
2.04656
2.02731
2.00799
1.98977
1.97178
1.95509
1.93911
1.92503
1.91208
1.90429
3.74351
3.3963
3.10656
2.87993
2.70483
2.56197
2.4454
2.35159
2.2576
2.18043
2.11092
2.05004
2.00883
1.97256
1.95955
1.95794
1.9718
1.99354
2.02697
2.07732
2.13184
2.19093
2.24942
2.30747
2.36239
2.41459
2.46367
2.51034
2.55457
2.59648
2.63577
2.67272
2.70652
2.73754
2.76536
2.79073
2.81281
2.83326
2.8499
2.86572
2.87697
2.88787
2.89347
2.89991
2.90267
2.90658
2.90549
2.9027
2.89586
2.89008
2.88165
2.87368
2.86342
2.85293
2.84068
2.82786
2.81378
2.79901
2.78323
2.76676
2.74935
2.73137
2.71242
2.69317
2.67283
2.65253
2.63091
2.60972
2.58691
2.56499
2.54115
2.51866
2.4941
2.47124
2.44635
2.42325
2.39859
2.37553
2.35138
2.32827
2.30468
2.28156
2.2586
2.23563
2.21335
2.19075
2.16919
2.14716
2.12638
2.10514
2.08526
2.06503
2.04623
2.02731
2.00993
1.99282
1.97738
1.96311
1.95039
1.94281
3.79949
3.49951
3.236
3.01752
2.8439
2.7072
2.59551
2.51237
2.44201
2.38027
2.33188
2.28424
2.24934
2.21706
2.19443
2.1765
2.16785
2.17273
2.18823
2.21174
2.25007
2.30012
2.35639
2.4109
2.46132
2.50905
2.55196
2.59357
2.63253
2.66963
2.70502
2.73838
2.76966
2.79839
2.82498
2.84883
2.87043
2.88956
2.90622
2.9209
2.93285
2.94291
2.94991
2.95556
2.96022
2.96377
2.96535
2.96254
2.95795
2.95135
2.94442
2.93533
2.92609
2.91424
2.90244
2.88803
2.87395
2.85747
2.84145
2.82331
2.80557
2.78603
2.76674
2.746
2.72528
2.70357
2.68152
2.65903
2.63582
2.61271
2.58862
2.56513
2.54046
2.51686
2.49236
2.4688
2.44446
2.42076
2.3967
2.37291
2.34919
2.32539
2.30206
2.27844
2.25557
2.23235
2.21001
2.18741
2.1657
2.14392
2.12305
2.10235
2.08261
2.06334
2.04523
2.0279
2.01203
1.99789
1.98514
1.97841
3.83932
3.58152
3.34154
3.13879
2.97224
2.84302
2.74487
2.67395
2.62732
2.58517
2.5511
2.51918
2.48623
2.45439
2.41537
2.3759
2.34154
2.32192
2.32324
2.33514
2.3539
2.3891
2.43908
2.49519
2.54854
2.59821
2.64299
2.68435
2.72245
2.75871
2.79295
2.8255
2.85603
2.88434
2.91017
2.93396
2.95468
2.97369
2.98954
3.00388
3.01453
3.02391
3.02914
3.03339
3.03598
3.03803
3.0378
3.0339
3.02784
3.01984
3.01118
3.0006
2.9898
2.97676
2.96373
2.94846
2.93346
2.91638
2.89968
2.88109
2.86279
2.84286
2.82302
2.80196
2.78074
2.75876
2.73635
2.71362
2.69019
2.66687
2.64263
2.61897
2.59455
2.57067
2.54601
2.52191
2.49734
2.47299
2.44869
2.42421
2.40036
2.37588
2.35257
2.32827
2.30554
2.28163
2.25956
2.23624
2.21497
2.1925
2.17226
2.15098
2.13207
2.11247
2.09527
2.07791
2.06315
2.04955
2.03785
2.03284
3.8714
3.64741
3.43378
3.24736
3.09499
2.97778
2.89787
2.84796
2.82111
2.79646
2.77075
2.75021
2.72386
2.68758
2.62229
2.55445
2.4993
2.45918
2.44192
2.44707
2.45805
2.47495
2.50813
2.55612
2.6064
2.65692
2.70224
2.74392
2.78054
2.81491
2.84627
2.87585
2.90353
2.9289
2.9528
2.97366
2.99272
3.00934
3.02345
3.03561
3.0448
3.05266
3.05658
3.05954
3.06096
3.06214
3.06116
3.05705
3.05069
3.04249
3.03322
3.02217
3.01063
2.99719
2.98352
2.96805
2.95247
2.93533
2.91803
2.89949
2.88056
2.86075
2.84029
2.8194
2.79758
2.77586
2.75295
2.73059
2.70685
2.68416
2.66016
2.63729
2.61309
2.58992
2.56559
2.54206
2.51778
2.49395
2.46991
2.44593
2.42233
2.39839
2.37536
2.35166
2.32928
2.30604
2.28436
2.26179
2.24091
2.21931
2.19944
2.1792
2.16078
2.14236
2.12579
2.11005
2.0964
2.08502
2.07484
2.07331
3.90362
3.7068
3.51825
3.35302
3.22035
3.12347
3.0693
3.04467
3.02633
3.01754
2.99828
2.97761
2.94947
2.89808
2.80691
2.72026
2.64786
2.59626
2.56321
2.55082
2.55629
2.56455
2.57938
2.60745
2.64863
2.69265
2.73878
2.78137
2.8206
2.85523
2.88698
2.9154
2.94223
2.96641
2.98914
3.00961
3.02802
3.04444
3.05844
3.07044
3.0797
3.08736
3.09171
3.0943
3.09612
3.0971
3.09664
3.09265
3.08692
3.07873
3.06948
3.05799
3.046
3.03204
3.01789
3.00202
2.98597
2.96845
2.9506
2.93157
2.91195
2.89158
2.87033
2.84883
2.82617
2.80378
2.78001
2.75706
2.73279
2.70962
2.68505
2.6616
2.63679
2.61295
2.58801
2.5638
2.53895
2.51451
2.48999
2.46543
2.44137
2.41682
2.39328
2.36895
2.34602
2.32219
2.30004
2.27704
2.25589
2.23413
2.21429
2.19429
2.17621
2.15839
2.14277
2.12832
2.11638
2.10713
2.09976
2.1009
3.94038
3.76456
3.60491
3.46518
3.3573
3.28829
3.26667
3.25145
3.24456
3.23759
3.22148
3.1978
3.15451
3.06684
2.96657
2.87256
2.79408
2.73353
2.68968
2.66328
2.65122
2.65335
2.65946
2.66971
2.68999
2.72465
2.7599
2.80047
2.841
2.87816
2.91143
2.94073
2.96697
2.99051
3.01208
3.03124
3.04875
3.0637
3.07685
3.08762
3.09646
3.10304
3.10725
3.10897
3.11053
3.11079
3.11025
3.10597
3.10044
3.09204
3.0829
3.07098
3.0589
3.04436
3.03013
3.01376
2.99786
2.98006
2.96261
2.94352
2.92446
2.90412
2.88345
2.86199
2.83987
2.81754
2.7945
2.77185
2.74839
2.72553
2.7018
2.67864
2.65473
2.6312
2.60726
2.5834
2.55958
2.53547
2.51188
2.48765
2.46447
2.4403
2.41766
2.39376
2.37176
2.3484
2.32713
2.3047
2.28439
2.26338
2.24444
2.22552
2.20839
2.19207
2.178
2.16559
2.15628
2.14975
2.1469
2.14886
3.97996
3.83349
3.69796
3.5933
3.51709
3.48578
3.47312
3.46666
3.46552
3.45166
3.43097
3.39101
3.30861
3.20705
3.1062
3.01354
2.93467
2.86984
2.81755
2.77952
2.7522
2.73817
2.73102
2.73569
2.74122
2.75446
2.78079
2.80783
2.84261
2.87991
2.91498
2.94703
2.97463
2.99944
3.02054
3.03971
3.05644
3.07132
3.08443
3.09553
3.10461
3.11178
3.11638
3.11836
3.11974
3.12036
3.11995
3.11628
3.11091
3.10299
3.0941
3.08266
3.07073
3.05653
3.04229
3.0261
3.00998
2.99222
2.97437
2.95522
2.93566
2.91517
2.89398
2.87224
2.84971
2.82728
2.80409
2.78137
2.75783
2.73491
2.71113
2.68795
2.66398
2.64046
2.6164
2.59254
2.56859
2.54449
2.52086
2.49671
2.47357
2.44961
2.42705
2.40352
2.38162
2.35879
2.3377
2.316
2.29603
2.2761
2.25786
2.24028
2.22419
2.21021
2.19804
2.1891
2.18267
2.18137
2.18069
2.18486
4.03507
3.91603
3.81736
3.74471
3.70804
3.6971
3.68976
3.68884
3.67524
3.65546
3.61415
3.52922
3.42911
3.32836
3.23309
3.14706
3.06909
3.00119
2.94364
2.8955
2.85727
2.82792
2.80849
2.79607
2.79513
2.79881
2.80707
2.82413
2.84582
2.8732
2.90789
2.94052
2.97179
2.99847
3.02204
3.04249
3.05977
3.07552
3.08832
3.09999
3.10889
3.11596
3.12104
3.1226
3.12395
3.12424
3.12398
3.12048
3.11554
3.1078
3.09944
3.08818
3.07655
3.0623
3.04806
3.03171
3.0156
2.99781
2.98014
2.96111
2.94185
2.92156
2.9006
2.87915
2.85696
2.83489
2.81198
2.78954
2.76632
2.74351
2.72023
2.69694
2.67367
2.64992
2.62663
2.6026
2.57929
2.5553
2.532
2.50841
2.48521
2.46226
2.43936
2.41712
2.39488
2.37341
2.35233
2.33194
2.31259
2.29406
2.27696
2.26072
2.24713
2.23516
2.22682
2.2209
2.22037
2.22076
2.22227
2.23366
4.11128
4.02723
3.96711
3.93292
3.92428
3.91563
3.91168
3.89835
3.87685
3.83095
3.74031
3.63952
3.54075
3.44466
3.35694
3.27359
3.19847
3.12807
3.06657
3.01037
2.96331
2.92206
2.89069
2.86518
2.85098
2.84066
2.84515
2.84873
2.85799
2.87456
2.8961
2.92572
2.95648
2.98505
3.01168
3.0339
3.05373
3.07012
3.08413
3.09615
3.10553
3.11305
3.11879
3.12111
3.12269
3.12309
3.12304
3.12027
3.11598
3.1088
3.10103
3.09023
3.07922
3.06527
3.0515
3.03522
3.0193
3.00146
2.98378
2.96476
2.94539
2.92516
2.90421
2.88307
2.86112
2.83933
2.81675
2.79446
2.77149
2.74884
2.72565
2.70274
2.67943
2.65625
2.63293
2.60946
2.58627
2.56261
2.53967
2.51617
2.49356
2.47064
2.44849
2.42651
2.40506
2.38438
2.36405
2.34516
2.32682
2.31014
2.29422
2.28093
2.26967
2.26158
2.25715
2.25654
2.2572
2.2598
2.26792
2.29194
4.22034
4.17439
4.15509
4.14927
4.14587
4.13931
4.12436
4.09901
4.04382
3.94527
3.83996
3.73855
3.64593
3.55706
3.47522
3.39503
3.32131
3.24969
3.18496
3.12339
3.06902
3.01888
2.97728
2.94121
2.91473
2.89406
2.88322
2.87797
2.88208
2.88691
2.89695
2.91447
2.93787
2.96563
2.99239
3.01722
3.03955
3.05817
3.07447
3.08734
3.09821
3.10663
3.1131
3.11665
3.11864
3.11917
3.11989
3.11788
3.11458
3.10755
3.10059
3.08994
3.07964
3.06586
3.05258
3.03643
3.02082
3.00306
2.98561
2.96659
2.94743
2.92722
2.90676
2.88569
2.86432
2.84251
2.8205
2.79814
2.77569
2.75305
2.73028
2.70754
2.68447
2.66171
2.6384
2.61561
2.59227
2.56947
2.54646
2.52373
2.50141
2.47902
2.45761
2.436
2.41573
2.39546
2.37681
2.35884
2.34237
2.32699
2.3139
2.30346
2.29576
2.29285
2.29247
2.29311
2.29784
2.308
2.32239
2.3593
4.38121
4.36237
4.36627
4.38524
4.3776
4.35925
4.32922
4.26383
4.15545
4.04162
3.93621
3.83927
3.75223
3.66887
3.59044
3.51236
3.43862
3.36609
3.29835
3.23312
3.1728
3.11662
3.06675
3.02243
2.98586
2.95514
2.93287
2.91646
2.90788
2.9061
2.91008
2.91535
2.92597
2.94683
2.96888
2.9941
3.01789
3.03967
3.05856
3.07381
3.08671
3.09625
3.10372
3.10879
3.11095
3.11209
3.11264
3.11176
3.10868
3.10303
3.09605
3.0869
3.07675
3.06438
3.05123
3.03615
3.02048
3.00338
2.98569
2.96703
2.94765
2.92785
2.90743
2.88674
2.86563
2.84413
2.82258
2.80039
2.77857
2.75593
2.73389
2.7111
2.68881
2.66607
2.64349
2.62096
2.59817
2.57593
2.5532
2.53139
2.50912
2.48796
2.46666
2.44648
2.42678
2.40815
2.39098
2.37463
2.36014
2.34733
2.33788
2.33065
2.32932
2.32891
2.33056
2.33521
2.34842
2.36959
2.38872
2.42912
4.57167
4.58157
4.61382
4.62106
4.60295
4.56922
4.49518
4.37362
4.24905
4.13506
4.03429
3.94399
3.8607
3.78119
3.70334
3.62665
3.55147
3.47857
3.40771
3.3405
3.27543
3.21513
3.15861
3.10774
3.06281
3.02369
2.99153
2.9654
2.94622
2.93311
2.92724
2.92763
2.93124
2.937
2.94855
2.9693
2.99133
3.01447
3.03517
3.05395
3.06883
3.08135
3.0903
3.0969
3.10083
3.10193
3.10284
3.1026
3.1007
3.09638
3.08988
3.08191
3.072
3.06063
3.04764
3.03333
3.01778
3.00123
2.98363
2.96539
2.94626
2.92706
2.9069
2.88696
2.86593
2.8453
2.82365
2.80233
2.7804
2.75844
2.73647
2.71401
2.69208
2.66938
2.64746
2.62483
2.60293
2.58064
2.55893
2.53731
2.5161
2.49558
2.4754
2.45649
2.43812
2.42169
2.40608
2.39214
2.38037
2.37154
2.36595
2.36491
2.36517
2.36713
2.37463
2.39018
2.41161
2.43819
2.45861
2.49642
4.82898
4.86502
4.87739
4.85632
4.81956
4.73936
4.6038
4.46574
4.3427
4.2337
4.13864
4.05224
3.97203
3.89372
3.8163
3.73921
3.66293
3.5887
3.51546
3.44584
3.37689
3.31328
3.25129
3.19606
3.14394
3.09886
3.05784
3.02372
2.99434
2.97196
2.95482
2.94536
2.94133
2.94103
2.9445
2.95161
2.96538
2.98483
3.006
3.02578
3.04453
3.05938
3.07168
3.08023
3.08639
3.08832
3.08982
3.08981
3.0892
3.08566
3.08031
3.07298
3.06418
3.05359
3.04164
3.02798
3.01334
2.99717
2.98033
2.96227
2.94394
2.92478
2.90536
2.88549
2.86514
2.84478
2.82361
2.80292
2.78113
2.76011
2.73802
2.71662
2.69458
2.6728
2.65102
2.62909
2.60768
2.58595
2.56508
2.54402
2.52398
2.50421
2.48553
2.46792
2.45165
2.43715
2.42355
2.41295
2.40474
2.40128
2.40062
2.40086
2.40515
2.41428
2.43314
2.45609
2.48155
2.50844
2.52668
2.55828
5.12558
5.14703
5.12451
5.08364
4.9955
4.84546
4.6937
4.55809
4.44141
4.33921
4.24808
4.16415
4.08427
4.00568
3.92697
3.84887
3.77108
3.69503
3.62043
3.54849
3.47773
3.41034
3.34536
3.28498
3.22821
3.17688
3.12945
3.08816
3.05045
3.01996
2.99285
2.97385
2.95921
2.95321
2.94636
2.94981
2.9534
2.9611
2.97502
2.99401
3.01298
3.03101
3.04569
3.05786
3.06601
3.07141
3.07277
3.07361
3.07355
3.07194
3.06752
3.06129
3.05326
3.04375
3.03257
3.01998
3.00611
2.99075
2.97464
2.95715
2.93956
2.9206
2.90205
2.88209
2.86281
2.84225
2.8223
2.80149
2.78086
2.75998
2.73878
2.71784
2.69631
2.67535
2.65381
2.63292
2.61175
2.59109
2.57081
2.5508
2.53196
2.51339
2.49676
2.48101
2.46744
2.45481
2.44524
2.43794
2.43686
2.43607
2.43781
2.44273
2.45692
2.47678
2.50164
2.52793
2.55275
2.57609
2.58946
2.61335
5.44154
5.4147
5.36802
5.26524
5.09971
4.93299
4.78706
4.66108
4.55169
4.45395
4.36363
4.2795
4.19726
4.1169
4.03612
3.95665
3.87744
3.80042
3.72372
3.6492
3.57654
3.50624
3.43916
3.37502
3.31518
3.25851
3.20663
3.15834
3.11481
3.07582
3.04156
3.01289
2.98919
2.97234
2.96099
2.95296
2.9476
2.95126
2.95522
2.96334
2.97926
2.99478
3.01204
3.02614
3.03831
3.04639
3.05134
3.05247
3.05289
3.05238
3.04994
3.04483
3.03742
3.02895
3.0185
3.0073
2.99403
2.98018
2.96449
2.94851
2.9312
2.91361
2.8953
2.87651
2.85756
2.83791
2.81848
2.7983
2.77846
2.75794
2.73774
2.71707
2.69658
2.67603
2.65543
2.63534
2.61502
2.59568
2.5763
2.55812
2.54063
2.52436
2.51016
2.49705
2.48605
2.47703
2.47249
2.47122
2.47168
2.47442
2.48291
2.49989
2.52231
2.54777
2.57424
2.59931
2.6197
2.63713
2.64465
2.66161
5.72568
5.67186
5.54809
5.35936
5.17681
5.01846
4.88383
4.7681
4.66478
4.57075
4.48154
4.3961
4.31187
4.22881
4.14585
4.06412
3.98313
3.90418
3.826
3.74988
3.67552
3.60325
3.53393
3.4668
3.40365
3.34273
3.28644
3.23249
3.18382
3.13773
3.09712
3.05998
3.02851
3.00145
2.98049
2.9657
2.95272
2.94224
2.9419
2.94413
2.94867
2.95727
2.97128
2.98618
2.99942
3.01176
3.01949
3.02445
3.02522
3.02521
3.02453
3.02155
3.01581
3.00786
2.99882
2.98849
2.97671
2.96411
2.94977
2.93518
2.9188
2.90255
2.88482
2.86726
2.84874
2.83022
2.81127
2.79211
2.7729
2.75338
2.73401
2.71431
2.6949
2.67533
2.65601
2.63704
2.61807
2.60025
2.58232
2.56628
2.55065
2.5377
2.52577
2.51608
2.5081
2.50633
2.50544
2.50659
2.5113
2.52437
2.5435
2.56802
2.59438
2.62109
2.64516
2.66503
2.67944
2.69007
2.69317
2.70435
5.99045
5.84352
5.61881
5.41213
5.24187
5.102
4.98294
4.87732
4.77911
4.68614
4.59596
4.50787
4.42116
4.33538
4.25066
4.16727
4.08507
4.00478
3.92552
3.84826
3.77244
3.69875
3.62718
3.55788
3.49139
3.42739
3.36676
3.30892
3.2546
3.20364
3.15665
3.11316
3.07399
3.03892
3.0086
2.98285
2.96409
2.94606
2.93252
2.92469
2.92593
2.92738
2.93154
2.94011
2.95199
2.96508
2.97564
2.98452
2.98919
2.99013
2.99015
2.98906
2.98659
2.97968
2.97236
2.96238
2.95255
2.94048
2.92843
2.91467
2.90042
2.88516
2.86906
2.85262
2.83532
2.81801
2.80008
2.78209
2.7639
2.74543
2.72722
2.70851
2.69048
2.67186
2.65424
2.63627
2.61944
2.603
2.58764
2.57389
2.56183
2.55188
2.54327
2.53819
2.53709
2.53736
2.54025
2.54859
2.56549
2.58785
2.61352
2.64106
2.66734
2.69074
2.70918
2.72251
2.73087
2.7352
2.73637
2.74214
6.12185
5.85311
5.62058
5.43814
5.29667
5.1806
5.07756
4.98064
4.88607
4.79318
4.70197
4.61209
4.52384
4.43645
4.35063
4.26619
4.18337
4.10196
4.02205
3.94329
3.86629
3.79096
3.71756
3.64607
3.57702
3.51012
3.44612
3.38442
3.32593
3.26989
3.2173
3.16746
3.12173
3.07895
3.04078
3.00686
2.97786
2.95462
2.93313
2.91436
2.903
2.89647
2.89651
2.89799
2.90156
2.90977
2.92134
2.93118
2.94055
2.94533
2.94688
2.94681
2.94589
2.94346
2.93726
2.9295
2.92036
2.91008
2.89926
2.88708
2.87446
2.86062
2.84629
2.83109
2.81542
2.79931
2.78276
2.76623
2.74916
2.73244
2.71525
2.69845
2.68167
2.66503
2.64922
2.63328
2.61905
2.60489
2.59314
2.58274
2.57497
2.56747
2.56608
2.56572
2.56654
2.57251
2.586
2.60597
2.63061
2.65814
2.68594
2.71188
2.73419
2.75137
2.76333
2.77007
2.77333
2.77351
2.77323
2.77668
6.02853
5.7701
5.5776
5.44111
5.33488
5.24171
5.15149
5.06155
4.9705
4.87869
4.7881
4.69901
4.61141
4.525
4.4398
4.35592
4.27304
4.19154
4.11114
4.03172
3.95402
3.87739
3.80254
3.72921
3.65774
3.58823
3.52081
3.45556
3.39276
3.33238
3.27486
3.22005
3.16848
3.11976
3.07484
3.03285
2.9953
2.96137
2.93389
2.90746
2.88504
2.86899
2.85937
2.85492
2.85502
2.85634
2.86013
2.86907
2.8786
2.88665
2.89254
2.89485
2.89486
2.89417
2.89202
2.88749
2.88007
2.87161
2.86179
2.85154
2.84025
2.82837
2.81559
2.80208
2.78811
2.77337
2.75861
2.7433
2.72805
2.71279
2.69733
2.68258
2.66743
2.65357
2.63949
2.62708
2.61506
2.60525
2.59721
2.59141
2.5872
2.58711
2.58812
2.59246
2.60214
2.62038
2.64345
2.67053
2.69906
2.72741
2.75271
2.774
2.79
2.80081
2.80652
2.80799
2.80801
2.80738
2.80428
2.8074
5.85966
5.63464
5.49938
5.41225
5.33837
5.26503
5.1883
5.10817
5.0259
4.94114
4.85467
4.76797
4.68188
4.59736
4.5134
4.43075
4.34815
4.26664
4.18581
4.10615
4.02763
3.95037
3.87447
3.79987
3.72654
3.65478
3.58465
3.51631
3.45002
3.38601
3.32424
3.26509
3.20833
3.15441
3.10316
3.05519
3.01039
2.96967
2.93266
2.90143
2.8721
2.84606
2.82582
2.81225
2.80257
2.80061
2.80037
2.80171
2.80624
2.81468
2.82225
2.82877
2.83189
2.83225
2.83216
2.83105
2.82844
2.82197
2.81455
2.80598
2.79686
2.78701
2.77632