/*--------------------------------*- C++ -*----------------------------------*\
  =========                 |
  \\      /  F ield         | OpenFOAM: The Open Source CFD Toolbox
   \\    /   O peration     | Website:  https://openfoam.org
    \\  /    A nd           | Version:  13
     \\/     M anipulation  |
\*---------------------------------------------------------------------------*/
FoamFile
{
    format      ascii;
    class       volVectorField;
    location    "9";
    object      U;
}
// * * * * * * * * * * * * * * * * * * * * * * * * * * * * * * * * * * * * * //

dimensions      [0 1 -1 0 0 0 0];

internalField   nonuniform List<vector> 
5250
(
(2.99999 2.15108e-08 0)
(2.99998 4.74117e-08 0)
(2.99995 3.14797e-07 0)
(2.99988 4.67074e-07 0)
(2.9997 2.11991e-06 0)
(2.99927 2.88959e-06 0)
(2.9982 1.56767e-05 0)
(2.99557 1.57184e-05 0)
(2.989 9.48501e-05 0)
(2.97242 0.000130148 0)
(2.92875 0.000489081 0)
(2.80679 0.00109155 0)
(2.44809 0.00324265 0)
(1.46959 0.00933839 0)
(0.645588 0.0219896 0)
(0.550108 0.0228647 0)
(0.570918 0.0237473 0)
(0.559516 0.0253306 0)
(0.504814 0.027117 0)
(0.418472 0.0292069 0)
(0.337457 0.0317502 0)
(0.2688 0.0346783 0)
(0.198871 0.037777 0)
(0.119463 0.0414273 0)
(0.0525763 0.0466746 0)
(2.99999 2.15076e-08 0)
(2.99998 2.70183e-07 0)
(2.99995 4.61501e-07 0)
(2.99988 2.7249e-06 0)
(2.99971 3.54588e-06 0)
(2.99929 1.71842e-05 0)
(2.99821 2.76523e-05 0)
(2.99563 9.59186e-05 0)
(2.98909 0.000197263 0)
(2.97274 0.00054486 0)
(2.92956 0.00131716 0)
(2.80902 0.00354575 0)
(2.455 0.00989061 0)
(1.48447 0.0289082 0)
(0.655072 0.0665913 0)
(0.548894 0.0660483 0)
(0.570204 0.065844 0)
(0.559342 0.0683011 0)
(0.504744 0.0712718 0)
(0.418609 0.0750887 0)
(0.337542 0.0795581 0)
(0.268261 0.0843129 0)
(0.197306 0.0887502 0)
(0.116562 0.0931149 0)
(0.0491891 0.0975327 0)
(2.99999 3.60071e-08 0)
(2.99998 4.09555e-07 0)
(2.99995 1.01947e-06 0)
(2.99988 4.01465e-06 0)
(2.99972 7.79152e-06 0)
(2.99929 2.72425e-05 0)
(2.99827 4.83729e-05 0)
(2.99571 0.000169588 0)
(2.98937 0.000308659 0)
(2.97334 0.000974299 0)
(2.93129 0.00216768 0)
(2.81381 0.00611227 0)
(2.46955 0.0167054 0)
(1.5176 0.0492945 0)
(0.676973 0.114856 0)
(0.547752 0.11176 0)
(0.570863 0.110307 0)
(0.56188 0.114877 0)
(0.508065 0.120517 0)
(0.422841 0.127965 0)
(0.342072 0.136241 0)
(0.272285 0.144877 0)
(0.200323 0.153151 0)
(0.118122 0.160764 0)
(0.0488287 0.166591 0)
(2.99999 8.33815e-08 0)
(2.99998 4.81641e-07 0)
(2.99996 1.89444e-06 0)
(2.99989 4.63132e-06 0)
(2.99973 1.39301e-05 0)
(2.99932 3.19537e-05 0)
(2.99833 8.39753e-05 0)
(2.99585 0.00020659 0)
(2.98976 0.000496436 0)
(2.9743 0.00128023 0)
(2.93383 0.00316838 0)
(2.82122 0.00847436 0)
(2.49106 0.0235287 0)
(1.56947 0.0689212 0)
(0.710503 0.163975 0)
(0.545493 0.156809 0)
(0.572661 0.153631 0)
(0.56734 0.160639 0)
(0.514954 0.169222 0)
(0.431312 0.180616 0)
(0.351101 0.193046 0)
(0.281025 0.206095 0)
(0.207983 0.218943 0)
(0.123556 0.230587 0)
(0.0506948 0.238322 0)
(3 9.82008e-08 0)
(2.99998 7.17321e-07 0)
(2.99996 2.12228e-06 0)
(2.99989 7.01375e-06 0)
(2.99974 1.58636e-05 0)
(2.99935 4.46102e-05 0)
(2.99841 0.000102872 0)
(2.99605 0.000266648 0)
(2.99027 0.000646708 0)
(2.97558 0.00162527 0)
(2.93725 0.00410386 0)
(2.83092 0.0108317 0)
(2.51993 0.0302625 0)
(1.63989 0.0879411 0)
(0.755717 0.214824 0)
(0.541505 0.201677 0)
(0.575503 0.196082 0)
(0.575667 0.205508 0)
(0.525191 0.216995 0)
(0.443708 0.232364 0)
(0.364349 0.24921 0)
(0.294156 0.267177 0)
(0.219933 0.285351 0)
(0.132384 0.302041 0)
(0.0544276 0.312639 0)
(3 1.25936e-07 0)
(2.99999 8.37674e-07 0)
(2.99996 2.65941e-06 0)
(2.9999 8.1947e-06 0)
(2.99976 1.98736e-05 0)
(2.99939 5.28095e-05 0)
(2.99851 0.000128172 0)
(2.9963 0.000317483 0)
(2.9909 0.000803538 0)
(2.97717 0.0019533 0)
(2.94154 0.00503258 0)
(2.84293 0.0131316 0)
(2.55591 0.0367147 0)
(1.73027 0.106329 0)
(0.813642 0.267758 0)
(0.536235 0.247096 0)
(0.580273 0.238231 0)
(0.587742 0.249949 0)
(0.539511 0.264289 0)
(0.460772 0.283808 0)
(0.382667 0.305641 0)
(0.312671 0.329531 0)
(0.237305 0.35453 0)
(0.145782 0.378447 0)
(0.0606535 0.394272 0)
(3 1.54412e-07 0)
(2.99999 8.98994e-07 0)
(2.99996 3.27161e-06 0)
(2.99991 8.75672e-06 0)
(2.99978 2.43668e-05 0)
(2.99944 5.83237e-05 0)
(2.99863 0.000154739 0)
(2.99661 0.000361979 0)
(2.99163 0.00095006 0)
(2.97909 0.0022654 0)
(2.9466 0.00589161 0)
(2.85725 0.0152609 0)
(2.59834 0.042574 0)
(1.8422 0.123187 0)
(0.886204 0.321104 0)
(0.532489 0.292526 0)
(0.588901 0.280111 0)
(0.605062 0.293878 0)
(0.55916 0.310945 0)
(0.483745 0.334848 0)
(0.407429 0.36238 0)
(0.338198 0.393494 0)
(0.262163 0.427453 0)
(0.166215 0.462178 0)
(0.0711131 0.488179 0)
(3 1.58284e-07 0)
(2.99999 1.00155e-06 0)
(2.99997 3.52288e-06 0)
(2.99992 9.79972e-06 0)
(2.9998 2.6203e-05 0)
(2.9995 6.64046e-05 0)
(2.99877 0.000164139 0)
(2.99697 0.000419883 0)
(2.99248 0.00100594 0)
(2.98129 0.00259572 0)
(2.95237 0.00641076 0)
(2.87355 0.0169859 0)
(2.64656 0.0467552 0)
(1.97571 0.135719 0)
(0.976296 0.367965 0)
(0.536592 0.338251 0)
(0.605442 0.323416 0)
(0.630232 0.337627 0)
(0.586277 0.356743 0)
(0.514626 0.385202 0)
(0.440662 0.419249 0)
(0.373048 0.459122 0)
(0.297723 0.50469 0)
(0.198341 0.555667 0)
(0.089543 0.602477 0)
(3 1.70971e-07 0)
(2.99999 9.97656e-07 0)
(2.99997 3.73064e-06 0)
(2.99993 9.80605e-06 0)
(2.99982 2.77793e-05 0)
(2.99956 6.6782e-05 0)
(2.99893 0.000173612 0)
(2.99732 0.000423309 0)
(2.99345 0.001061 0)
(2.9836 0.00264677 0)
(2.95858 0.00669225 0)
(2.89103 0.0174798 0)
(2.69798 0.0482442 0)
(2.12592 0.140222 0)
(1.08907 0.399129 0)
(0.562813 0.385657 0)
(0.634997 0.373408 0)
(0.66562 0.383333 0)
(0.623619 0.40347 0)
(0.556111 0.435177 0)
(0.485064 0.476364 0)
(0.420203 0.525437 0)
(0.348673 0.585053 0)
(0.251353 0.661587 0)
(0.124274 0.751567 0)
(3 1.66098e-07 0)
(2.99999 9.12649e-07 0)
(2.99998 3.44491e-06 0)
(2.99994 8.95383e-06 0)
(2.99985 2.55899e-05 0)
(2.99962 5.91564e-05 0)
(2.99906 0.00016291 0)
(2.99771 0.000364172 0)
(2.99434 0.000997683 0)
(2.98599 0.00228176 0)
(2.96473 0.00606405 0)
(2.90836 0.0151916 0)
(2.74972 0.0418129 0)
(2.28549 0.119526 0)
(1.23901 0.354304 0)
(0.632837 0.412695 0)
(0.685135 0.426289 0)
(0.713268 0.428994 0)
(0.673684 0.45158 0)
(0.610424 0.484999 0)
(0.542898 0.532682 0)
(0.482338 0.590283 0)
(0.422444 0.668429 0)
(0.342465 0.787191 0)
(0.191682 0.994002 0)
(3 1.23138e-07 0)
(2.99999 8.66458e-07 0)
(2.99998 2.70576e-06 0)
(2.99995 8.45023e-06 0)
(2.99987 2.00723e-05 0)
(2.99967 5.48741e-05 0)
(2.99918 0.000127926 0)
(2.99801 0.000331708 0)
(2.99504 0.000788828 0)
(2.98783 0.00199001 0)
(2.96935 0.00485927 0)
(2.92081 0.0124563 0)
(2.78492 0.0329002 0)
(2.3866 0.0920407 0)
(1.37632 0.273424 0)
(0.687969 0.448746 0)
(0.709447 0.48163 0)
(0.739792 0.480042 0)
(0.718888 0.501153 0)
(0.667323 0.53427 0)
(0.609627 0.584547 0)
(0.561237 0.649857 0)
(0.530594 0.743487 0)
(0.528924 0.88887 0)
(0.563985 1.13067 0)
(3 1.09575e-07 0)
(2.99999 7.82529e-07 0)
(2.99998 2.45438e-06 0)
(2.99995 7.60616e-06 0)
(2.99988 1.82743e-05 0)
(2.99971 4.98398e-05 0)
(2.9993 0.000115419 0)
(2.99826 0.000303986 0)
(2.99572 0.000708865 0)
(2.98937 0.0018262 0)
(2.97346 0.00439849 0)
(2.93161 0.0113196 0)
(2.81541 0.0296155 0)
(2.4761 0.0826111 0)
(1.55332 0.242524 0)
(0.784381 0.502429 0)
(0.718877 0.527718 0)
(0.749992 0.527698 0)
(0.750618 0.54522 0)
(0.717499 0.579078 0)
(0.677745 0.629259 0)
(0.648783 0.699009 0)
(0.648992 0.797417 0)
(0.70152 0.935114 0)
(0.827398 1.11317 0)
(3 1.13521e-07 0)
(2.99999 7.03244e-07 0)
(2.99998 2.46441e-06 0)
(2.99996 6.86153e-06 0)
(2.9999 1.82608e-05 0)
(2.99975 4.58172e-05 0)
(2.99939 0.000114036 0)
(2.99851 0.000283884 0)
(2.99631 0.000693571 0)
(2.9909 0.00173148 0)
(2.97726 0.00425484 0)
(2.94178 0.0108336 0)
(2.8441 0.0282815 0)
(2.56041 0.0787081 0)
(1.75357 0.228521 0)
(0.911231 0.543796 0)
(0.728642 0.556604 0)
(0.759737 0.560623 0)
(0.777429 0.577323 0)
(0.762962 0.614381 0)
(0.7423 0.665473 0)
(0.735292 0.734375 0)
(0.757976 0.825401 0)
(0.829932 0.936791 0)
(0.969028 1.04609 0)
(3 1.13658e-07 0)
(2.99999 6.60155e-07 0)
(2.99999 2.45079e-06 0)
(2.99997 6.45505e-06 0)
(2.99992 1.81056e-05 0)
(2.99979 4.34691e-05 0)
(2.99949 0.000112919 0)
(2.99874 0.000272226 0)
(2.99693 0.000684884 0)
(2.99234 0.00167988 0)
(2.98103 0.00418929 0)
(2.95165 0.0105521 0)
(2.87186 0.027576 0)
(2.64212 0.0761833 0)
(1.97005 0.220518 0)
(1.06492 0.576474 0)
(0.750471 0.585664 0)
(0.777664 0.589833 0)
(0.806683 0.602176 0)
(0.808584 0.640164 0)
(0.803019 0.692047 0)
(0.812105 0.756295 0)
(0.848567 0.83293 0)
(0.924268 0.917939 0)
(1.05453 0.988963 0)
(3 1.01881e-07 0)
(3 6.21746e-07 0)
(2.99999 2.20623e-06 0)
(2.99997 6.08913e-06 0)
(2.99993 1.64581e-05 0)
(2.99983 4.07546e-05 0)
(2.99958 0.000104094 0)
(2.99898 0.000254111 0)
(2.99748 0.000637771 0)
(2.99382 0.00157051 0)
(2.98464 0.00392989 0)
(2.96131 0.00987978 0)
(2.89876 0.0257024 0)
(2.72175 0.0703845 0)
(2.19958 0.203467 0)
(1.25758 0.571933 0)
(0.810347 0.616928 0)
(0.81504 0.625039 0)
(0.844587 0.629663 0)
(0.858703 0.661933 0)
(0.862037 0.710383 0)
(0.879427 0.767754 0)
(0.922259 0.830993 0)
(0.996506 0.89582 0)
(1.11341 0.946946 0)
(3 8.3503e-08 0)
(3 5.46004e-07 0)
(2.99999 1.83422e-06 0)
(2.99998 5.33365e-06 0)
(2.99995 1.36983e-05 0)
(2.99986 3.52791e-05 0)
(2.99967 8.67118e-05 0)
(2.99918 0.000217065 0)
(2.99802 0.000529845 0)
(2.99509 0.00132206 0)
(2.98796 0.00324444 0)
(2.9698 0.00815297 0)
(2.92235 0.0208009 0)
(2.79087 0.0558612 0)
(2.40918 0.158823 0)
(1.49226 0.471216 0)
(0.911751 0.633319 0)
(0.869253 0.658576 0)
(0.88937 0.666222 0)
(0.911564 0.686115 0)
(0.920289 0.725548 0)
(0.940459 0.774273 0)
(0.984219 0.826177 0)
(1.05451 0.876453 0)
(1.15767 0.915174 0)
(3 7.52225e-08 0)
(3 4.35561e-07 0)
(2.99999 1.58663e-06 0)
(2.99998 4.24043e-06 0)
(2.99996 1.16795e-05 0)
(2.99989 2.78603e-05 0)
(2.99973 7.31592e-05 0)
(2.99935 0.000169806 0)
(2.99841 0.00044285 0)
(2.99608 0.0010255 0)
(2.99034 0.00264713 0)
(2.97593 0.00629713 0)
(2.93846 0.0162187 0)
(2.8356 0.0419173 0)
(2.53877 0.116286 0)
(1.72839 0.344876 0)
(1.02248 0.660612 0)
(0.90694 0.692094 0)
(0.922417 0.705036 0)
(0.951691 0.712713 0)
(0.971296 0.740788 0)
(0.994796 0.780047 0)
(1.03741 0.821972 0)
(1.10256 0.861063 0)
(1.19309 0.890512 0)
(3 5.99406e-08 0)
(3 3.79177e-07 0)
(2.99999 1.29406e-06 0)
(2.99999 3.69759e-06 0)
(2.99997 9.59178e-06 0)
(2.99992 2.43596e-05 0)
(2.99979 6.02707e-05 0)
(2.99949 0.00014944 0)
(2.99874 0.000368041 0)
(2.99692 0.000903467 0)
(2.99235 0.00223885 0)
(2.9811 0.00551387 0)
(2.95194 0.0139091 0)
(2.87308 0.0360586 0)
(2.6474 0.0990974 0)
(1.99446 0.288366 0)
(1.1869 0.691169 0)
(0.941682 0.724379 0)
(0.948485 0.735927 0)
(0.98123 0.736805 0)
(1.01322 0.753782 0)
(1.04185 0.784758 0)
(1.08324 0.818666 0)
(1.14302 0.849132 0)
(1.22262 0.871206 0)
(3 4.95282e-08 0)
(3 3.17751e-07 0)
(3 1.08499e-06 0)
(2.99999 3.10578e-06 0)
(2.99997 8.06801e-06 0)
(2.99994 2.06181e-05 0)
(2.99984 5.06973e-05 0)
(2.99961 0.00012736 0)
(2.99903 0.000309166 0)
(2.99764 0.000776694 0)
(2.99418 0.00189087 0)
(2.98565 0.00475316 0)
(2.9639 0.0118195 0)
(2.90632 0.0306439 0)
(2.74469 0.0831547 0)
(2.27101 0.23948 0)
(1.41385 0.654601 0)
(1.01555 0.743363 0)
(0.990021 0.75689 0)
(1.01326 0.758927 0)
(1.05157 0.766521 0)
(1.08527 0.789316 0)
(1.1246 0.816139 0)
(1.17839 0.839694 0)
(1.24826 0.855661 0)
(3 3.95871e-08 0)
(3 2.588e-07 0)
(3 8.60448e-07 0)
(2.99999 2.525e-06 0)
(2.99998 6.38861e-06 0)
(2.99995 1.65815e-05 0)
(2.99988 4.03949e-05 0)
(2.99971 0.000100852 0)
(2.99928 0.000247192 0)
(2.99824 0.000606586 0)
(2.99567 0.00150189 0)
(2.98937 0.00367193 0)
(2.97351 0.00919167 0)
(2.93245 0.023227 0)
(2.81992 0.0618093 0)
(2.4963 0.173834 0)
(1.68892 0.512058 0)
(1.12755 0.747999 0)
(1.04265 0.774629 0)
(1.05229 0.784159 0)
(1.08869 0.784352 0)
(1.12567 0.797163 0)
(1.16276 0.81596 0)
(1.21031 0.832918 0)
(1.2713 0.843443 0)
(3 3.06883e-08 0)
(3 2.02433e-07 0)
(3 6.68535e-07 0)
(2.99999 1.971e-06 0)
(2.99998 4.95044e-06 0)
(2.99996 1.29291e-05 0)
(2.99991 3.11402e-05 0)
(2.99978 7.83262e-05 0)
(2.99946 0.000189572 0)
(2.99869 0.000467572 0)
(2.99674 0.00114551 0)
(2.99205 0.00280103 0)
(2.98019 0.00694166 0)
(2.94996 0.0173048 0)
(2.86812 0.0449448 0)
(2.63529 0.122786 0)
(1.97881 0.36274 0)
(1.27523 0.755737 0)
(1.08525 0.798715 0)
(1.08367 0.810807 0)
(1.11654 0.8068 0)
(1.15872 0.807075 0)
(1.19611 0.817283 0)
(1.23888 0.827926 0)
(1.29212 0.834001 0)
(3 2.39289e-08 0)
(3 1.57364e-07 0)
(3 5.28387e-07 0)
(3 1.53179e-06 0)
(2.99999 3.91723e-06 0)
(2.99997 1.01314e-05 0)
(2.99993 2.44617e-05 0)
(2.99984 6.2283e-05 0)
(2.9996 0.000147981 0)
(2.99904 0.000376237 0)
(2.99761 0.00089566 0)
(2.9942 0.00226767 0)
(2.98559 0.00549423 0)
(2.96399 0.0138726 0)
(2.90666 0.0354703 0)
(2.74663 0.0959933 0)
(2.27886 0.277012 0)
(1.49754 0.713799 0)
(1.15512 0.815012 0)
(1.1233 0.828804 0)
(1.14302 0.827835 0)
(1.18502 0.819557 0)
(1.22549 0.820391 0)
(1.26524 0.824551 0)
(1.31142 0.826097 0)
(3 1.83022e-08 0)
(3 1.19888e-07 0)
(3 4.03783e-07 0)
(3 1.16676e-06 0)
(2.99999 2.98914e-06 0)
(2.99998 7.69026e-06 0)
(2.99995 1.86526e-05 0)
(2.99988 4.71736e-05 0)
(2.99972 0.000112314 0)
(2.99931 0.000285209 0)
(2.99831 0.000674112 0)
(2.99588 0.00171383 0)
(2.98986 0.00410231 0)
(2.97491 0.0103637 0)
(2.93624 0.0259676 0)
(2.83125 0.0689638 0)
(2.53005 0.193633 0)
(1.78899 0.55788 0)
(1.27038 0.81236 0)
(1.17401 0.839394 0)
(1.1768 0.846828 0)
(1.21041 0.836462 0)
(1.25119 0.827814 0)
(1.28919 0.824576 0)
(1.32862 0.819311 0)
(3 1.41967e-08 0)
(3 8.66829e-08 0)
(3 3.0768e-07 0)
(3 8.42712e-07 0)
(2.99999 2.26941e-06 0)
(2.99999 5.56333e-06 0)
(2.99997 1.40878e-05 0)
(2.99992 3.41458e-05 0)
(2.9998 8.41906e-05 0)
(2.99951 0.000206543 0)
(2.9988 0.0005004 0)
(2.99706 0.00124393 0)
(2.9928 0.0029948 0)
(2.98219 0.00750756 0)
(2.95523 0.0184988 0)
(2.88307 0.0480797 0)
(2.68009 0.130288 0)
(2.10307 0.383451 0)
(1.4314 0.806207 0)
(1.22 0.860013 0)
(1.20744 0.865156 0)
(1.23006 0.854598 0)
(1.27024 0.837984 0)
(1.30777 0.826306 0)
(1.34084 0.811685 0)
(3 1.05407e-08 0)
(3 6.29678e-08 0)
(3 2.26569e-07 0)
(3 6.11265e-07 0)
(3 1.67135e-06 0)
(2.99999 4.02948e-06 0)
(2.99998 1.03888e-05 0)
(2.99994 2.46888e-05 0)
(2.99986 6.22355e-05 0)
(2.99966 0.000148985 0)
(2.99918 0.000370921 0)
(2.99796 0.000898157 0)
(2.99508 0.00221327 0)
(2.98783 0.00544781 0)
(2.96989 0.0134919 0)
(2.92303 0.0344366 0)
(2.79526 0.0917692 0)
(2.42439 0.263664 0)
(1.69326 0.691468 0)
(1.30891 0.852403 0)
(1.25088 0.868853 0)
(1.25704 0.866571 0)
(1.28871 0.846334 0)
(1.32249 0.824277 0)
(1.34778 0.799194 0)
(3 7.33713e-09 0)
(3 4.59222e-08 0)
(3 1.5693e-07 0)
(3 4.4615e-07 0)
(3 1.15651e-06 0)
(2.99999 2.90841e-06 0)
(2.99998 7.22956e-06 0)
(2.99996 1.75266e-05 0)
(2.9999 4.37038e-05 0)
(2.99976 0.000103895 0)
(2.99943 0.000261602 0)
(2.99859 0.000615981 0)
(2.99659 0.00155868 0)
(2.99159 0.00369313 0)
(2.97933 0.00930953 0)
(2.94783 0.0228901 0)
(2.86356 0.0598599 0)
(2.62506 0.163981 0)
(1.99395 0.475329 0)
(1.43138 0.827407 0)
(1.29128 0.871966 0)
(1.28133 0.872759 0)
(1.29998 0.853473 0)
(1.32848 0.820569 0)
(1.34711 0.78109 0)
(3 5.15407e-09 0)
(3 3.26406e-08 0)
(3 1.10984e-07 0)
(3 3.17418e-07 0)
(3 8.1743e-07 0)
(3 2.07338e-06 0)
(2.99999 5.10907e-06 0)
(2.99997 1.25261e-05 0)
(2.99993 3.08478e-05 0)
(2.99984 7.44904e-05 0)
(2.9996 0.000184352 0)
(2.99904 0.000442501 0)
(2.99764 0.00110142 0)
(2.99428 0.00264259 0)
(2.98586 0.00659419 0)
(2.96486 0.0161699 0)
(2.9095 0.0415295 0)
(2.75677 0.110863 0)
(2.31542 0.320985 0)
(1.63765 0.760107 0)
(1.34504 0.872223 0)
(1.30441 0.875216 0)
(1.30841 0.854194 0)
(1.32391 0.813847 0)
(1.33587 0.760102 0)
(3 3.54541e-09 0)
(3 2.26477e-08 0)
(3 7.78353e-08 0)
(3 2.19741e-07 0)
(3 5.73176e-07 0)
(3 1.44825e-06 0)
(2.99999 3.53587e-06 0)
(2.99998 8.84227e-06 0)
(2.99995 2.10615e-05 0)
(2.99989 5.2959e-05 0)
(2.99973 0.000124822 0)
(2.99935 0.000315544 0)
(2.99842 0.000742161 0)
(2.99617 0.0018771 0)
(2.9906 0.00446684 0)
(2.97685 0.0112587 0)
(2.94153 0.0279463 0)
(2.84704 0.0736227 0)
(2.5767 0.205781 0)
(1.92543 0.574396 0)
(1.44538 0.851117 0)
(1.32946 0.874362 0)
(1.31231 0.843216 0)
(1.31347 0.792193 0)
(1.31408 0.725744 0)
(3 2.43588e-09 0)
(3 1.56299e-08 0)
(3 5.30838e-08 0)
(3 1.5169e-07 0)
(3 3.90626e-07 0)
(3 9.92682e-07 0)
(2.99999 2.41962e-06 0)
(2.99999 6.00453e-06 0)
(2.99997 1.44676e-05 0)
(2.99993 3.56443e-05 0)
(2.99982 8.60026e-05 0)
(2.99956 0.000210715 0)
(2.99894 0.000510503 0)
(2.99738 0.00124735 0)
(2.99368 0.00304062 0)
(2.98438 0.00745816 0)
(2.9611 0.0184728 0)
(2.89967 0.0472267 0)
(2.72928 0.127091 0)
(2.24752 0.369114 0)
(1.6113 0.793491 0)
(1.34842 0.868711 0)
(1.29753 0.8253 0)
(1.28771 0.753821 0)
(1.28209 0.672804 0)
(3 1.67408e-09 0)
(3 1.03759e-08 0)
(3 3.59047e-08 0)
(3 1.00737e-07 0)
(3 2.63936e-07 0)
(3 6.55638e-07 0)
(3 1.63738e-06 0)
(2.99999 3.94631e-06 0)
(2.99998 9.79234e-06 0)
(2.99995 2.33351e-05 0)
(2.99988 5.81655e-05 0)
(2.99971 0.000137677 0)
(2.99928 0.000344004 0)
(2.99827 0.00081571 0)
(2.99577 0.00203307 0)
(2.98969 0.00488491 0)
(2.97453 0.0121415 0)
(2.93568 0.0304003 0)
(2.8313 0.0800164 0)
(2.53304 0.226332 0)
(1.86763 0.606829 0)
(1.40022 0.825118 0)
(1.27044 0.789163 0)
(1.24635 0.69864 0)
(1.24514 0.611227 0)
(3 1.03684e-09 0)
(3 6.85182e-09 0)
(3 2.27344e-08 0)
(3 6.61937e-08 0)
(3 1.67104e-07 0)
(3 4.3002e-07 0)
(3 1.03161e-06 0)
(2.99999 2.58448e-06 0)
(2.99999 6.13995e-06 0)
(2.99997 1.52164e-05 0)
(2.99992 3.62686e-05 0)
(2.9998 8.90744e-05 0)
(2.99951 0.000213763 0)
(2.99879 0.000521517 0)
(2.99707 0.00126097 0)
(2.99279 0.00306382 0)
(2.98231 0.00750031 0)
(2.95559 0.0184769 0)
(2.88474 0.0473925 0)
(2.68714 0.12769 0)
(2.14502 0.370456 0)
(1.47686 0.748968 0)
(1.21074 0.744953 0)
(1.17834 0.639136 0)
(1.19877 0.553035 0)
(3 6.63527e-10 0)
(3 4.29552e-09 0)
(3 1.43917e-08 0)
(3 4.15014e-08 0)
(3 1.05401e-07 0)
(3 2.68479e-07 0)
(3 6.50123e-07 0)
(3 1.60002e-06 0)
(2.99999 3.85566e-06 0)
(2.99998 9.36436e-06 0)
(2.99994 2.26329e-05 0)
(2.99986 5.44437e-05 0)
(2.99964 0.000132552 0)
(2.99915 0.000316443 0)
(2.99789 0.000774733 0)
(2.99489 0.00184773 0)
(2.98735 0.0045444 0)
(2.96867 0.01103 0)
(2.91974 0.0278968 0)
(2.78639 0.0733745 0)
(2.40778 0.210132 0)
(1.62707 0.54939 0)
(1.15115 0.643287 0)
(1.08668 0.562384 0)
(1.13618 0.491861 0)
(3 4.07294e-10 0)
(3 2.57417e-09 0)
(3 8.81934e-09 0)
(3 2.48808e-08 0)
(3 6.41259e-08 0)
(3 1.60658e-07 0)
(3 3.90251e-07 0)
(3 9.53589e-07 0)
(2.99999 2.27412e-06 0)
(2.99998 5.54398e-06 0)
(2.99995 1.31022e-05 0)
(2.99989 3.18481e-05 0)
(2.99972 7.52226e-05 0)
(2.99933 0.000181852 0)
(2.99834 0.00043013 0)
(2.99593 0.00103529 0)
(2.98995 0.00246596 0)
(2.97495 0.00594693 0)
(2.93581 0.0145196 0)
(2.82843 0.0368101 0)
(2.52128 0.0987755 0)
(1.73529 0.284227 0)
(1.06497 0.49123 0)
(0.950793 0.459699 0)
(1.03823 0.421149 0)
(3 2.3023e-10 0)
(3 1.64052e-09 0)
(3 5.15617e-09 0)
(3 1.57946e-08 0)
(3 3.76389e-08 0)
(3 1.01629e-07 0)
(3 2.28671e-07 0)
(3 6.01247e-07 0)
(2.99999 1.33914e-06 0)
(2.99998 3.45976e-06 0)
(2.99996 7.78445e-06 0)
(2.99991 1.9689e-05 0)
(2.99977 4.5159e-05 0)
(2.99944 0.00011142 0)
(2.9986 0.000261618 0)
(2.99658 0.000627714 0)
(2.99144 0.00150976 0)
(2.97866 0.00358113 0)
(2.9451 0.00879208 0)
(2.85269 0.0220256 0)
(2.58397 0.0584249 0)
(1.8304 0.163601 0)
(0.988406 0.371778 0)
(0.782113 0.358094 0)
(0.91782 0.351854 0)
(3 1.51447e-10 0)
(3 9.22082e-10 0)
(3 3.25085e-09 0)
(3 8.89216e-09 0)
(3 2.37301e-08 0)
(3 5.78864e-08 0)
(3 1.44521e-07 0)
(3 3.46534e-07 0)
(2.99999 8.47964e-07 0)
(2.99999 2.03024e-06 0)
(2.99997 4.91321e-06 0)
(2.99992 1.18688e-05 0)
(2.9998 2.83703e-05 0)
(2.99951 6.88877e-05 0)
(2.99877 0.000164027 0)
(2.99697 0.000398639 0)
(2.99241 0.00095184 0)
(2.98099 0.00231825 0)
(2.95106 0.00566063 0)
(2.86852 0.0143649 0)
(2.6265 0.0383666 0)
(1.91546 0.107082 0)
(0.943906 0.275824 0)
(0.614847 0.265321 0)
(0.800584 0.288449 0)
(3 9.3684e-11 0)
(3 5.29355e-10 0)
(3 2.0045e-09 0)
(3 5.12473e-09 0)
(3 1.47087e-08 0)
(3 3.39737e-08 0)
(3 8.98955e-08 0)
(3 2.09981e-07 0)
(3 5.22587e-07 0)
(2.99999 1.28297e-06 0)
(2.99997 3.0355e-06 0)
(2.99993 7.79905e-06 0)
(2.99982 1.75918e-05 0)
(2.99955 4.71345e-05 0)
(2.99887 0.000103302 0)
(2.99724 0.000282835 0)
(2.99304 0.00061566 0)
(2.98257 0.00167429 0)
(2.95506 0.003903 0)
(2.87945 0.0103718 0)
(2.65635 0.027818 0)
(1.98413 0.0792295 0)
(0.92842 0.217289 0)
(0.485997 0.203601 0)
(0.713283 0.243238 0)
(3 5.79435e-11 0)
(3 3.55136e-10 0)
(3 1.2512e-09 0)
(3 3.46724e-09 0)
(3 9.1819e-09 0)
(3 2.29188e-08 0)
(3 5.69262e-08 0)
(3 1.39201e-07 0)
(3 3.423e-07 0)
(2.99999 8.38744e-07 0)
(2.99997 2.06041e-06 0)
(2.99993 5.0954e-06 0)
(2.99983 1.24909e-05 0)
(2.99958 3.15704e-05 0)
(2.99897 7.67251e-05 0)
(2.9974 0.000196878 0)
(2.99357 0.00048191 0)
(2.98372 0.00122529 0)
(2.95828 0.00311536 0)
(2.88831 0.00820359 0)
(2.68214 0.0228759 0)
(2.05375 0.0676468 0)
(0.947002 0.196185 0)
(0.417506 0.175417 0)
(0.662458 0.207946 0)
(3 4.57957e-11 0)
(3 2.40436e-10 0)
(3 8.89e-10 0)
(3 2.36538e-09 0)
(3 6.50157e-09 0)
(3 1.4948e-08 0)
(3 4.2638e-08 0)
(3 8.54295e-08 0)
(3 2.72704e-07 0)
(2.99999 4.93341e-07 0)
(2.99997 1.70316e-06 0)
(2.99994 2.9591e-06 0)
(2.99984 1.06043e-05 0)
(2.99961 1.87627e-05 0)
(2.99901 6.52918e-05 0)
(2.99757 0.000123962 0)
(2.99389 0.000406298 0)
(2.98477 0.000864856 0)
(2.96088 0.00255625 0)
(2.89599 0.00653396 0)
(2.70599 0.0191048 0)
(2.12669 0.058915 0)
(0.989255 0.180404 0)
(0.400336 0.160827 0)
(0.643644 0.179863 0)
(3 3.31744e-11 0)
(3 1.57377e-10 0)
(3 6.93056e-10 0)
(3 1.53779e-09 0)
(3 5.02786e-09 0)
(3 1.03569e-08 0)
(3 3.07077e-08 0)
(3 6.6762e-08 0)
(3 1.78863e-07 0)
(2.99999 4.37079e-07 0)
(2.99997 1.0483e-06 0)
(2.99994 2.81942e-06 0)
(2.99985 6.37846e-06 0)
(2.99962 1.79945e-05 0)
(2.99906 3.94129e-05 0)
(2.99768 0.000115919 0)
(2.99418 0.000254285 0)
(2.98552 0.000746267 0)
(2.96302 0.00179247 0)
(2.90232 0.00513641 0)
(2.72683 0.0145186 0)
(2.19655 0.0459383 0)
(1.04159 0.144784 0)
(0.407477 0.150942 0)
(0.640889 0.164363 0)
(3 1.32381e-11 0)
(3 1.48663e-10 0)
(3 3.8912e-10 0)
(3 1.4263e-09 0)
(3 2.91731e-09 0)
(3 9.88384e-09 0)
(3 1.67771e-08 0)
(3 6.50843e-08 0)
(3 9.64522e-08 0)
(2.99999 4.17088e-07 0)
(2.99998 5.84501e-07 0)
(2.99994 2.63522e-06 0)
(2.99985 3.76154e-06 0)
(2.99964 1.61137e-05 0)
(2.99909 2.59305e-05 0)
(2.99775 9.82157e-05 0)
(2.99442 0.000183489 0)
(2.98606 0.000601047 0)
(2.96456 0.00134289 0)
(2.90678 0.0039178 0)
(2.74097 0.0107697 0)
(2.24411 0.0331558 0)
(1.09184 0.103462 0)
(0.425809 0.144682 0)
(0.641972 0.156495 0)
(3 1.5965e-11 0)
(3 1.08391e-10 0)
(3 3.74896e-10 0)
(3 1.06242e-09 0)
(3 2.78738e-09 0)
(3 7.31738e-09 0)
(3 1.70481e-08 0)
(3 4.71127e-08 0)
(3 1.03191e-07 0)
(2.99999 2.97832e-07 0)
(2.99998 6.27334e-07 0)
(2.99994 1.89895e-06 0)
(2.99986 3.87315e-06 0)
(2.99964 1.20877e-05 0)
(2.99912 2.48584e-05 0)
(2.99781 7.65995e-05 0)
(2.9946 0.000164016 0)
(2.98649 0.000481288 0)
(2.96581 0.00113717 0)
(2.91022 0.00318417 0)
(2.75183 0.00876371 0)
(2.27819 0.0263247 0)
(1.14353 0.0805675 0)
(0.454343 0.135043 0)
(0.64406 0.147261 0)
(3 2.47802e-11 0)
(3 6.55385e-11 0)
(3 4.40941e-10 0)
(3 6.63715e-10 0)
(3 3.25648e-09 0)
(3 4.33729e-09 0)
(3 2.14721e-08 0)
(3 2.58552e-08 0)
(3 1.35278e-07 0)
(2.99999 1.60652e-07 0)
(2.99998 8.2281e-07 0)
(2.99994 1.05815e-06 0)
(2.99986 4.94684e-06 0)
(2.99965 7.39508e-06 0)
(2.99915 2.93296e-05 0)
(2.99787 5.24555e-05 0)
(2.99476 0.000172437 0)
(2.98687 0.000368109 0)
(2.96683 0.00105062 0)
(2.91319 0.0026367 0)
(2.76062 0.0075069 0)
(2.30662 0.0221103 0)
(1.19054 0.0676081 0)
(0.486656 0.12129 0)
(0.647522 0.136772 0)
(3 3.54758e-12 0)
(3 8.47919e-11 0)
(3 1.48755e-10 0)
(3 8.37646e-10 0)
(3 1.28435e-09 0)
(3 5.61404e-09 0)
(3 8.97582e-09 0)
(3 3.54567e-08 0)
(3 5.64141e-08 0)
(2.99999 2.27929e-07 0)
(2.99998 3.62479e-07 0)
(2.99994 1.43218e-06 0)
(2.99986 2.44995e-06 0)
(2.99966 8.80246e-06 0)
(2.99916 1.71521e-05 0)
(2.99793 5.40309e-05 0)
(2.99487 0.000122152 0)
(2.98722 0.000341539 0)
(2.96769 0.000848576 0)
(2.9157 0.00230369 0)
(2.76822 0.00638262 0)
(2.3306 0.0188086 0)
(1.23338 0.0574532 0)
(0.520256 0.10769 0)
(0.649974 0.124746 0)
(3 7.94345e-12 0)
(3 4.73935e-11 0)
(3 1.78947e-10 0)
(3 4.67839e-10 0)
(3 1.33899e-09 0)
(3 3.39181e-09 0)
(3 8.64526e-09 0)
(3 2.33199e-08 0)
(3 5.52537e-08 0)
(2.99999 1.55496e-07 0)
(2.99998 3.6725e-07 0)
(2.99995 1.02116e-06 0)
(2.99987 2.44126e-06 0)
(2.99966 6.85178e-06 0)
(2.99919 1.59043e-05 0)
(2.99796 4.55579e-05 0)
(2.995 0.000106779 0)
(2.98747 0.000296036 0)
(2.96847 0.000731282 0)
(2.91781 0.00198569 0)
(2.77468 0.00546929 0)
(2.35077 0.0159988 0)
(1.27146 0.0484169 0)
(0.551774 0.0937609 0)
(0.651525 0.109289 0)
(3 4.04026e-12 0)
(3 6.315e-11 0)
(3 9.23548e-11 0)
(3 6.44474e-10 0)
(3 7.4236e-10 0)
(3 4.18857e-09 0)
(3 5.71645e-09 0)
(3 2.51521e-08 0)
(3 4.65513e-08 0)
(2.99999 1.38006e-07 0)
(2.99998 3.70739e-07 0)
(2.99995 7.61901e-07 0)
(2.99987 2.75484e-06 0)
(2.99967 4.39485e-06 0)
(2.99919 1.94555e-05 0)
(2.99801 2.72806e-05 0)
(2.99508 0.000125497 0)
(2.98774 0.000202833 0)
(2.96911 0.000721696 0)
(2.91968 0.00162452 0)
(2.78009 0.00479651 0)
(2.36775 0.0135189 0)
(1.30455 0.0402618 0)
(0.579916 0.0797103 0)
(0.653357 0.0920224 0)
(3 -3.0161e-12 0)
(3 5.74841e-11 0)
(3 2.82566e-11 0)
(3 5.84865e-10 0)
(3 3.2521e-10 0)
(3 4.30381e-09 0)
(3 2.00314e-09 0)
(3 2.95274e-08 0)
(3 1.56905e-08 0)
(2.99999 1.89207e-07 0)
(2.99998 1.32943e-07 0)
(2.99995 1.17573e-06 0)
(2.99987 1.10514e-06 0)
(2.99968 6.93518e-06 0)
(2.9992 9.45406e-06 0)
(2.99805 3.95447e-05 0)
(2.99514 7.387e-05 0)
(2.98797 0.000232328 0)
(2.96967 0.000528017 0)
(2.92121 0.00148949 0)
(2.78482 0.00396256 0)
(2.38126 0.0113105 0)
(1.33276 0.0328427 0)
(0.603652 0.066083 0)
(0.655267 0.073268 0)
(3 1.502e-11 0)
(3 -7.69822e-12 0)
(3 2.33762e-10 0)
(3 -7.00566e-11 0)
(3 1.66371e-09 0)
(3 -1.44441e-10 0)
(3 1.07424e-08 0)
(3 1.65005e-09 0)
(3 6.63183e-08 0)
(2.99999 3.61978e-08 0)
(2.99998 3.83249e-07 0)
(2.99995 4.03991e-07 0)
(2.99987 2.11347e-06 0)
(2.99968 3.78066e-06 0)
(2.99922 1.09729e-05 0)
(2.99806 2.99063e-05 0)
(2.99524 6.05509e-05 0)
(2.98812 0.000196693 0)
(2.97017 0.000411988 0)
(2.92251 0.00120627 0)
(2.78848 0.00312474 0)
(2.3924 0.00900404 0)
(1.35584 0.0259431 0)
(0.622149 0.0529911 0)
(0.656596 0.0536962 0)
(3 9.88903e-12 0)
(3 -9.13572e-12 0)
(3 1.43127e-10 0)
(3 -7.24351e-11 0)
(3 1.07501e-09 0)
(3 -3.7119e-10 0)
(3 7.46547e-09 0)
(3 -1.63271e-09 0)
(3 4.62904e-08 0)
(2.99999 8.32432e-10 0)
(2.99998 2.84586e-07 0)
(2.99995 1.19901e-07 0)
(2.99987 1.64214e-06 0)
(2.99969 1.65233e-06 0)
(2.99923 9.30338e-06 0)
(2.99809 1.59022e-05 0)
(2.99528 5.12002e-05 0)
(2.98827 0.000120199 0)
(2.9705 0.000312189 0)
(2.92353 0.000817273 0)
(2.79122 0.00223539 0)
(2.40115 0.00641666 0)
(1.37419 0.0188938 0)
(0.635302 0.0393048 0)
(0.656855 0.0363457 0)
(3 -9.31495e-12 0)
(3 4.41055e-11 0)
(3 -1.05785e-10 0)
(3 4.36876e-10 0)
(3 -6.31937e-10 0)
(3 2.82337e-09 0)
(3 -3.3808e-09 0)
(3 1.67175e-08 0)
(3 -1.45776e-08 0)
(2.99999 8.82967e-08 0)
(2.99998 -3.06642e-08 0)
(2.99995 4.26273e-07 0)
(2.99987 2.44744e-07 0)
(2.99969 1.85834e-06 0)
(2.99923 4.23716e-06 0)
(2.9981 7.51741e-06 0)
(2.99532 3.88264e-05 0)
(2.98834 4.07476e-05 0)
(2.97074 0.000225994 0)
(2.92417 0.000417027 0)
(2.79308 0.00136233 0)
(2.40688 0.00376476 0)
(1.38643 0.0114738 0)
(0.644 0.0242516 0)
(0.656901 0.0214017 0)
(3 -8.9942e-12 0)
(3 4.24607e-11 0)
(3 -1.22561e-10 0)
(3 4.11049e-10 0)
(3 -7.88007e-10 0)
(3 2.36646e-09 0)
(3 -3.99704e-09 0)
(3 1.21732e-08 0)
(3 -1.5967e-08 0)
(2.99999 5.47951e-08 0)
(2.99998 -4.61951e-08 0)
(2.99995 1.7471e-07 0)
(2.99987 1.34477e-07 0)
(2.99969 1.3455e-07 0)
(2.99923 2.80417e-06 0)
(2.99812 -3.23859e-06 0)
(2.99531 2.6764e-05 0)
(2.98842 -2.09852e-05 0)
(2.97083 0.00012286 0)
(2.92444 6.61667e-05 0)
(2.79419 0.00049573 0)
(2.40954 0.00121202 0)
(1.39297 0.00386709 0)
(0.648254 0.00827228 0)
(0.656602 0.0071188 0)
(1.11631 0.998964 0)
(0.995327 0.709399 0)
(0.0768796 0.424419 0)
(-0.423514 0.0217553 0)
(-0.551806 -0.00893345 0)
(-0.693642 -0.023772 0)
(-0.747511 -0.0116543 0)
(-0.794362 0.0109868 0)
(-0.855217 0.0176345 0)
(-0.912765 0.0144846 0)
(-0.957795 0.00603432 0)
(-0.993982 -0.00173841 0)
(-1.02059 -0.00261068 0)
(-1.03185 -0.00269906 0)
(-1.03055 -0.00380425 0)
(-1.01751 -0.00540815 0)
(-0.991836 -0.0075662 0)
(-0.953882 -0.0099698 0)
(-0.907352 -0.0120372 0)
(-0.856649 -0.0130649 0)
(-0.804472 -0.0134567 0)
(-0.752168 -0.0135291 0)
(-0.700366 -0.0134693 0)
(-0.649011 -0.0134144 0)
(-0.598007 -0.0134411 0)
(-0.547179 -0.0136086 0)
(-0.496425 -0.0139849 0)
(-0.445806 -0.01457 0)
(-0.394435 -0.0158777 0)
(-0.342617 -0.0174216 0)
(-0.291306 -0.0185898 0)
(-0.24108 -0.0194692 0)
(-0.191911 -0.0204526 0)
(-0.143579 -0.021306 0)
(-0.0958716 -0.0221355 0)
(-0.0491264 -0.0231291 0)
(-0.00241334 -0.0255198 0)
(0.0485207 -0.0245638 0)
(0.092828 -0.0226743 0)
(0.136472 -0.0215172 0)
(0.178654 -0.0208576 0)
(0.219111 -0.0200637 0)
(0.257981 -0.0192333 0)
(0.29458 -0.0184047 0)
(0.330778 -0.0180573 0)
(0.368427 -0.0182919 0)
(0.405784 -0.0178442 0)
(0.441692 -0.0171179 0)
(0.476343 -0.0163996 0)
(0.510093 -0.0158121 0)
(0.54308 -0.0152599 0)
(0.575393 -0.0147692 0)
(0.60701 -0.0142607 0)
(0.638007 -0.0137747 0)
(0.668375 -0.0132906 0)
(0.698164 -0.0128246 0)
(0.72738 -0.0123707 0)
(0.756037 -0.0119334 0)
(0.784157 -0.0115022 0)
(0.811754 -0.0110903 0)
(0.838833 -0.0106824 0)
(0.865414 -0.0102927 0)
(0.891506 -0.00990433 0)
(0.917129 -0.00953551 0)
(0.942282 -0.00916626 0)
(0.966991 -0.00881237 0)
(0.991248 -0.00846049 0)
(1.01507 -0.00811738 0)
(1.03847 -0.00777805 0)
(1.06144 -0.00744305 0)
(1.08398 -0.00711082 0)
(1.1061 -0.00678133 0)
(1.1278 -0.00645352 0)
(1.14908 -0.00612848 0)
(1.16994 -0.00580491 0)
(1.19038 -0.00548521 0)
(1.21041 -0.00516744 0)
(1.23003 -0.00485527 0)
(1.24927 -0.00454605 0)
(1.26812 -0.0042435 0)
(1.2866 -0.00394481 0)
(1.30472 -0.00365154 0)
(1.32248 -0.00336292 0)
(1.3399 -0.00307894 0)
(1.35697 -0.00279904 0)
(1.37369 -0.00253052 0)
(1.39007 -0.00227414 0)
(1.40611 -0.00201981 0)
(1.4218 -0.00175742 0)
(1.4371 -0.00150521 0)