/*--------------------------------*- C++ -*----------------------------------*\
  =========                 |
  \\      /  F ield         | OpenFOAM: The Open Source CFD Toolbox
   \\    /   O peration     | Website:  https://openfoam.org
    \\  /    A nd           | Version:  13
     \\/     M anipulation  |
\*---------------------------------------------------------------------------*/
FoamFile
{
    format      ascii;
    class       surfaceScalarField;
    location    "7";
    object      phi;
}
// * * * * * * * * * * * * * * * * * * * * * * * * * * * * * * * * * * * * * //

dimensions      [1 0 -1 0 0 0 0];

internalField   nonuniform List<scalar> 
10325
(
0.0840003
1.88958e-09
0.0840004
5.25863e-10
0.0840003
3.20226e-08
0.0840001
7.9098e-09
0.0839996
2.11652e-07
0.0840006
1.41081e-07
0.0839929
1.2192e-06
0.0840069
1.2742e-06
0.0839654
6.56601e-06
0.0840074
1.08502e-05
0.0839096
3.59116e-05
0.0838599
9.24588e-05
0.0834919
0.000305796
0.0823077
0.00117315
0.0762391
0.00593077
0.0698855
0.00637112
0.063737
0.00615459
0.0573375
0.0063944
0.0506179
0.00671316
0.0434904
0.00712318
0.0358434
0.00764042
0.0276646
0.00817416
0.0189831
0.00867262
0.00978671
0.00918285
0.00977938
0.0840003
2.48736e-09
0.0840001
8.42242e-09
0.0840011
4.44822e-08
0.0839986
8.07779e-08
0.084004
3.32316e-07
0.0839913
4.94894e-07
0.0840188
2.21355e-06
0.0839567
2.96339e-06
0.0840641
1.32051e-05
0.0838683
2.13561e-05
0.0840629
7.55026e-05
0.083721
0.000186358
0.0835513
0.000630236
0.0822472
0.00236309
0.076192
0.0118624
0.0697464
0.0128381
0.0636758
0.0122321
0.0573575
0.0127076
0.0506798
0.0133845
0.0434884
0.0143103
0.0357566
0.0153657
0.0274975
0.0164287
0.0187039
0.0174573
0.00946014
0.0184132
0.0192323
0.0840003
2.08631e-09
0.0840002
1.84805e-08
0.0840005
4.60244e-08
0.0839995
1.78653e-07
0.0840022
3.57749e-07
0.0839927
1.09725e-06
0.0840155
2.44287e-06
0.0839572
6.39608e-06
0.084065
1.5654e-05
0.0838645
3.95828e-05
0.0840632
0.000103437
0.0837295
0.000292213
0.0835857
0.000934786
0.0823003
0.00351286
0.0765036
0.0175322
0.069999
0.019367
0.063973
0.0182665
0.0577334
0.0189422
0.0511152
0.0199967
0.0439432
0.0214778
0.0361784
0.0231247
0.0278461
0.024755
0.0189533
0.0263402
0.00956457
0.0277887
0.0287912
0.0840003
3.51542e-09
0.0840004
1.92284e-08
0.0839999
7.54564e-08
0.0840012
1.90332e-07
0.0839985
5.51753e-07
0.0840018
1.3078e-06
0.0839954
3.34745e-06
0.0839971
8.32552e-06
0.083985
2.04911e-05
0.0839858
5.23938e-05
0.0839152
0.00013647
0.0838694
0.00038487
0.0835423
0.00122039
0.0824738
0.00454033
0.07724
0.0226128
0.0706993
0.0259355
0.0646947
0.0242811
0.0585371
0.025095
0.0519952
0.026532
0.0448781
0.0285907
0.0371325
0.0308634
0.0287446
0.0331415
0.0196695
0.0354083
0.00999465
0.0374499
0.038779
0.0840003
3.82949e-09
0.0840003
2.42429e-08
0.0840002
8.58627e-08
0.0840003
2.37674e-07
0.0840002
6.30403e-07
0.0839979
1.63387e-06
0.0840037
3.91392e-06
0.0839798
1.04046e-05
0.0840228
2.42968e-05
0.0839279
6.53536e-05
0.0839986
0.000163759
0.0838152
0.000468538
0.0836396
0.00146364
0.0827078
0.0053777
0.0785849
0.0265868
0.0719739
0.0325805
0.0659151
0.0303522
0.0598055
0.0312003
0.0533753
0.0329561
0.0463368
0.035625
0.0386342
0.0385593
0.030181
0.0415886
0.0208811
0.0447017
0.0107254
0.0475916
0.0494965
0.0840003
4.33857e-09
0.0840001
2.88162e-08
0.0840007
9.38351e-08
0.0839991
2.80313e-07
0.0840031
7.12539e-07
0.0839922
1.83185e-06
0.0840185
4.65577e-06
0.0839567
1.12165e-05
0.084079
2.93778e-05
0.0838525
7.04082e-05
0.0841183
0.000190454
0.0837604
0.000518806
0.0838024
0.00163293
0.0831498
0.00587559
0.0809736
0.0286166
0.0742212
0.0393724
0.0678985
0.03669
0.0617402
0.0373551
0.0553751
0.0393168
0.0484563
0.0425395
0.0407715
0.0462381
0.0322627
0.0500932
0.0226688
0.0542859
0.0118733
0.0583754
0.0613624
0.0840003
3.86104e-09
0.0840003
3.13513e-08
0.0840002
9.05613e-08
0.0840005
3.07909e-07
0.0840001
6.6781e-07
0.0839993
2.09074e-06
0.0840025
4.12996e-06
0.0839873
1.32203e-05
0.0840188
2.61673e-05
0.0839558
8.06995e-05
0.0840231
0.000184239
0.0839347
0.000546525
0.083962
0.00163839
0.0839002
0.00586092
0.0849686
0.0273905
0.0780311
0.046347
0.0710262
0.0437131
0.0646664
0.0437128
0.058294
0.045684
0.0514288
0.0493992
0.0437913
0.0538702
0.0351742
0.0587055
0.0252977
0.0641532
0.0136706
0.0699896
0.0750249
0.0840003
4.60711e-09
0.0840003
2.55295e-08
0.0840006
9.45382e-08
0.0839998
2.50216e-07
0.084001
7.14252e-07
0.0839998
1.61676e-06
0.0839987
4.6761e-06
0.0840056
9.71601e-06
0.0839898
2.91006e-05
0.084025
6.18417e-05
0.084016
0.000178466
0.0840963
0.000453285
0.0843422
0.00139324
0.085446
0.00472451
0.0918993
0.0207621
0.0846943
0.0535785
0.0758849
0.0525408
0.0690741
0.0505236
0.0625315
0.0522226
0.0555981
0.0563288
0.0479221
0.0615393
0.0392315
0.0673932
0.0290904
0.0742858
0.016613
0.0824536
0.0916284
0.0840003
3.92291e-09
0.0840004
2.32451e-08
0.084
8.54134e-08
0.0840012
2.26059e-07
0.0839987
6.25231e-07
0.0840047
1.52918e-06
0.0839931
3.78893e-06
0.0840157
9.76614e-06
0.0839791
2.24259e-05
0.0840524
6.07194e-05
0.0839706
0.000143296
0.0841696
0.000397468
0.084282
0.00113603
0.0852547
0.00379705
0.0898821
0.0160418
0.0868149
0.056592
0.0788744
0.0604709
0.0732338
0.0561546
0.0667437
0.058703
0.0603159
0.0627497
0.0529625
0.0688853
0.0447138
0.0756353
0.0350328
0.0839572
0.0216789
0.0957925
0.113295
0.0840003
3.14439e-09
0.0840002
2.41327e-08
0.0840008
7.06064e-08
0.0839994
2.35663e-07
0.0840027
5.33993e-07
0.0839955
1.52036e-06
0.084013
3.487e-06
0.0839761
9.02621e-06
0.0840539
2.20832e-05
0.0839204
5.39681e-05
0.0841325
0.000139496
0.0839064
0.000361846
0.0842152
0.00105116
0.0844415
0.00342919
0.0865465
0.0139047
0.0848368
0.0581832
0.0824355
0.0628456
0.0762086
0.062366
0.0705876
0.0643115
0.0650186
0.0683072
0.0588519
0.0750414
0.0519881
0.0824896
0.0430831
0.0928518
0.0303146
0.108546
0.143591
0.0840003
3.89186e-09
0.0840004
2.03679e-08
0.084
8.20423e-08
0.0840013
1.98972e-07
0.0839983
6.03228e-07
0.0840057
1.34113e-06
0.0839893
3.68388e-06
0.0840279
8.55102e-06
0.0839473
2.17663e-05
0.0841011
5.40737e-05
0.0838616
0.000134623
0.0841625
0.000357918
0.0839072
0.00100886
0.0842462
0.00327375
0.0854134
0.0126013
0.0852681
0.0582203
0.0817625
0.0663388
0.0777916
0.0663276
0.0739886
0.068103
0.0696169
0.0726681
0.0655238
0.0791203
0.0606785
0.0873191
0.056103
0.0974099
0.0553249
0.109302
0.114051
0.0848311
0.0840003
3.64009e-09
0.0840002
2.18608e-08
0.0840007
7.63208e-08
0.0839996
2.12259e-07
0.0840022
5.65027e-07
0.0839962
1.38847e-06
0.0840104
3.62586e-06
0.0839797
8.44613e-06
0.0840445
2.25731e-05
0.0839219
5.19591e-05
0.0841144
0.000139844
0.0838579
0.000350012
0.08412
0.00100292
0.0840316
0.00315913
0.0849247
0.0117527
0.0868848
0.0561086
0.0833607
0.0698573
0.0796192
0.0700639
0.0765362
0.0711752
0.0735096
0.0756803
0.0706447
0.0819696
0.0682197
0.0897264
0.0672645
0.098344
0.0709576
0.105582
0.104941
0.0800282
0.0840003
2.8483e-09
0.0840003
2.30896e-08
0.0840003
6.64223e-08
0.0840002
2.2476e-07
0.0840006
5.0038e-07
0.0839988
1.47996e-06
0.0840049
3.21402e-06
0.0839863
9.1069e-06
0.0840332
2.01754e-05
0.0839351
5.53136e-05
0.0841048
0.000130294
0.0838887
0.000352604
0.0841393
0.000957143
0.0841162
0.00299666
0.0851703
0.0107598
0.0911508
0.0499645
0.0872262
0.0737846
0.0828383
0.0744514
0.079788
0.0742139
0.0775477
0.0779048
0.0757103
0.0837885
0.075049
0.0903674
0.076733
0.0966339
0.0813231
0.100952
0.0995718
0.0866475
0.0840003
3.41469e-09
0.0840004
1.74911e-08
0.0840002
7.10717e-08
0.0840008
1.71846e-07
0.0839992
5.25138e-07
0.0840036
1.16953e-06
0.0839936
3.27583e-06
0.0840202
7.39311e-06
0.0839653
1.9838e-05
0.0840928
4.6677e-05
0.0838843
0.000121938
0.0842402
0.000307053
0.083996
0.000843626
0.084736
0.00252974
0.086554
0.0087606
0.0991965
0.0372013
0.093503
0.079472
0.0883113
0.0796398
0.0844112
0.0781078
0.0821134
0.0801873
0.0811099
0.084773
0.0814763
0.0899775
0.0835949
0.0944919
0.0875766
0.096929
0.0951486
0.0919513
0.0840003
2.16026e-09
0.0840003
1.72245e-08
0.0840004
4.98643e-08
0.0840001
1.67738e-07
0.0840011
3.7344e-07
0.0839987
1.09685e-06
0.084006
2.36891e-06
0.0839904
6.67321e-06
0.0840362
1.46284e-05
0.0839543
3.9885e-05
0.0841553
9.15766e-05
0.083949
0.000243148
0.0844865
0.000622604
0.0849142
0.00180897
0.0879321
0.00588302
0.101398
0.0236119
0.0993464
0.081454
0.0954338
0.0835339
0.0898988
0.0836321
0.0871629
0.0829032
0.0862595
0.0856598
0.0868282
0.0893804
0.0888251
0.0924656
0.0921326
0.0935805
0.091503
0.0957308
0.0840003
2.20354e-09
0.0840003
1.31896e-08
0.0840003
4.75946e-08
0.0840005
1.29066e-07
0.084
3.50291e-07
0.0840017
8.58495e-07
0.0839975
2.17375e-06
0.0840105
5.29491e-06
0.083983
1.30762e-05
0.0840585
3.23142e-05
0.0839322
7.93373e-05
0.0842002
0.000200704
0.0840147
0.000518957
0.0846299
0.00145937
0.0856414
0.00464486
0.0915883
0.0177134
0.100123
0.0727534
0.0976146
0.0860147
0.0942445
0.0869843
0.0916077
0.0855224
0.0907501
0.0864999
0.0913161
0.0887865
0.0930399
0.0907125
0.0956723
0.0909083
0.088606
0.0985209
0.0840003
2.05211e-09
0.0840003
1.10299e-08
0.0840004
4.26558e-08
0.0840003
1.07358e-07
0.0840004
3.15474e-07
0.0840004
7.09777e-07
0.0840001
1.99287e-06
0.0840036
4.36647e-06
0.0839933
1.21305e-05
0.0840275
2.68337e-05
0.0839677
7.33421e-05
0.0841097
0.000170979
0.084014
0.000462943
0.0843692
0.00124586
0.0849743
0.00389424
0.0886929
0.0140316
0.100718
0.0605585
0.0998835
0.0868346
0.0975156
0.0893377
0.095236
0.0877918
0.0945417
0.0871707
0.0950401
0.0882649
0.096469
0.0892491
0.0985127
0.0888259
0.086399
0.100674
0.0840003
1.53126e-09
0.0840003
9.79395e-09
0.0840004
3.33501e-08
0.0840003
9.59062e-08
0.0840006
2.47865e-07
0.0839997
6.3606e-07
0.0840028
1.55863e-06
0.0839958
3.93608e-06
0.0840175
9.56008e-06
0.0839742
2.40677e-05
0.0840918
5.89265e-05
0.083917
0.000149319
0.0842896
0.000378685
0.0841749
0.00102602
0.0852772
0.00304959
0.0886378
0.0104847
0.106891
0.0421729
0.104302
0.0894022
0.102829
0.0907943
0.0999906
0.0906203
0.0984133
0.0887382
0.0984335
0.0882153
0.0994522
0.0882017
0.100978
0.0872633
0.0847782
0.102554
0.0840003
1.18412e-09
0.0840003
7.73119e-09
0.0840004
2.59711e-08
0.0840003
7.54992e-08
0.0840006
1.91846e-07
0.0839998
4.98608e-07
0.0840028
1.20261e-06
0.0839968
3.03841e-06
0.0840171
7.30076e-06
0.0839809
1.82965e-05
0.084092
4.41038e-05
0.0839411
0.000111207
0.0843425
0.00027534
0.0842675
0.000725171
0.0856024
0.00204122
0.0893082
0.00655185
0.106352
0.0251228
0.110444
0.08522
0.107947
0.0932672
0.104754
0.0937937
0.102459
0.0910187
0.101804
0.0888456
0.102274
0.087698
0.103257
0.0862431
0.083663
0.104333
0.0840003
9.35437e-10
0.0840003
6.26228e-09
0.0840004
2.03759e-08
0.0840003
6.10326e-08
0.0840006
1.52057e-07
0.0839999
3.96582e-07
0.0840024
9.66158e-07
0.0839975
2.39191e-06
0.0840124
5.9241e-06
0.0839863
1.42722e-05
0.0840605
3.60634e-05
0.0839566
8.61632e-05
0.0842197
0.000221462
0.0841
0.000558386
0.0848744
0.00155194
0.0863883
0.00479231
0.0939128
0.0176584
0.109936
0.0690097
0.110149
0.0930177
0.108286
0.0956282
0.105849
0.0934435
0.104951
0.0897153
0.10496
0.0876605
0.105445
0.0857222
0.0830161
0.106051
0.0840003
7.23773e-10
0.0840003
4.90828e-09
0.0840003
1.61178e-08
0.0840004
4.78326e-08
0.0840003
1.19868e-07
0.0840007
3.16499e-07
0.0840003
7.50903e-07
0.0840012
1.94956e-06
0.0840028
4.56608e-06
0.0840003
1.18195e-05
0.0840223
2.78893e-05
0.0839993
7.16521e-05
0.0841139
0.000174416
0.0841216
0.000451475
0.0845603
0.00120521
0.0856482
0.00359801
0.0909105
0.0124164
0.112224
0.0475064
0.112906
0.0922815
0.112595
0.0959221
0.110579
0.0954463
0.108391
0.0918827
0.107653
0.0883708
0.107646
0.0856946
0.0827805
0.107843
0.0840003
5.69874e-10
0.0840003
3.49489e-09
0.0840003
1.25139e-08
0.0840004
3.41823e-08
0.0840002
9.25273e-08
0.0840008
2.27696e-07
0.0839999
5.69703e-07
0.084003
1.41237e-06
0.0839986
3.3758e-06
0.0840136
8.59956e-06
0.0839977
2.00219e-05
0.0840591
5.20421e-05
0.0840382
0.000121192
0.0842824
0.000317809
0.0845256
0.000800738
0.0859864
0.00228044
0.0910852
0.00721527
0.111786
0.0267385
0.118284
0.0856809
0.116933
0.0972465
0.114436
0.0979195
0.111867
0.0944308
0.110512
0.0897041
0.109967
0.0862132
0.0829744
0.109738
0.0840003
4.16935e-10
0.0840003
2.7141e-09
0.0840003
9.07898e-09
0.0840003
2.64116e-08
0.0840004
6.7234e-08
0.0840003
1.72795e-07
0.0840009
4.2238e-07
0.0840005
1.04547e-06
0.0840019
2.57141e-06
0.0840044
6.22386e-06
0.0840029
1.55246e-05
0.084034
3.72395e-05
0.0840183
9.40726e-05
0.0841806
0.000229523
0.084281
0.000594819
0.0850506
0.001604
0.0872283
0.00491905
0.0962435
0.0177267
0.116928
0.0648009
0.118881
0.0952528
0.118013
0.0987543
0.115397
0.0970224
0.11356
0.091535
0.112439
0.0873095
0.0835955
0.111783
0.0840003
3.31574e-10
0.0840003
1.89902e-09
0.0840003
7.05821e-09
0.0840003
1.85691e-08
0.0840003
5.18955e-08
0.0840004
1.22754e-07
0.0840003
3.22387e-07
0.0840013
7.51829e-07
0.0839997
1.93463e-06
0.0840075
4.54111e-06
0.083995
1.15161e-05
0.0840455
2.756e-05
0.0839803
6.8789e-05
0.0842107
0.000169386
0.0841115
0.000427314
0.0848902
0.00112707
0.0862574
0.00325169
0.0932517
0.0108516
0.118532
0.0392746
0.121998
0.0917181
0.122018
0.0987245
0.120159
0.0988721
0.116728
0.0949587
0.115156
0.0888681
0.084663
0.114064
0.0840003
2.22874e-10
0.0840003
1.42773e-09
0.0840003
4.80503e-09
0.0840003
1.39148e-08
0.0840004
3.55817e-08
0.0840003
9.05381e-08
0.0840008
2.2466e-07
0.0840001
5.43311e-07
0.0840026
1.36602e-06
0.084
3.21342e-06
0.0840103
8.21607e-06
0.0840066
1.90231e-05
0.0840422
4.92835e-05
0.0840675
0.000114725
0.0842413
0.000298135
0.0845426
0.000742476
0.0858021
0.00206906
0.0902187
0.00636856
0.106645
0.0227705
0.123401
0.0748231
0.12446
0.0976442
0.123201
0.100115
0.119728
0.0984265
0.11802
0.0905561
0.0861341
0.116527
0.0840003
1.52414e-10
0.0840003
1.02557e-09
0.0840003
3.38559e-09
0.0840003
1.00232e-08
0.0840003
2.50204e-08
0.0840004
6.58295e-08
0.0840004
1.55756e-07
0.0840005
3.99999e-07
0.0840014
9.39304e-07
0.0840001
2.38936e-06
0.0840087
5.64645e-06
0.0839966
1.41999e-05
0.0840534
3.41083e-05
0.0839895
8.50441e-05
0.0842523
0.000209327
0.0841975
0.000530327
0.0851526
0.00140869
0.0870843
0.00414257
0.0957
0.0142622
0.121391
0.0489074
0.125756
0.0932207
0.126365
0.0994914
0.1255
0.0992811
0.12127
0.0947752
0.0883511
0.119033
0.0840003
1.08556e-10
0.0840003
6.89907e-10
0.0840003
2.39069e-09
0.0840003
6.73545e-09
0.0840003
1.7621e-08
0.0840004
4.44325e-08
0.0840003
1.08404e-07
0.0840008
2.71366e-07
0.0840003
6.43621e-07
0.0840025
1.62384e-06
0.0840021
3.79839e-06
0.0840082
9.67545e-06
0.0840196
2.24696e-05
0.0840374
5.74778e-05
0.0841308
0.000135521
0.0842783
0.00034753
0.0848359
0.000873836
0.0865055
0.00243741
0.0931888
0.00758953
0.115696
0.0262943
0.128773
0.0800341
0.129038
0.0991969
0.12795
0.100343
0.12426
0.0984473
0.0906087
0.121978
0.0840003
7.90738e-11
0.0840003
4.58875e-10
0.0840003
1.6943e-09
0.0840003
4.47918e-09
0.0840003
1.24654e-08
0.0840004
2.94898e-08
0.0840003
7.71895e-08
0.0840006
1.79401e-07
0.0840002
4.59092e-07
0.0840023
1.07783e-06
0.0839993
2.70456e-06
0.0840132
6.47429e-06
0.0839947
1.59264e-05
0.0840719
3.89912e-05
0.0839908
9.47691e-05
0.0843169
0.00023764
0.0842748
0.000591839
0.0854793
0.00158821
0.0880539
0.00467555
0.0983119
0.0161547
0.125122
0.0529691
0.129966
0.0942842
0.130898
0.0993863
0.129756
0.0995669
0.0947258
0.125615
0.0840003
4.84987e-11
0.0840003
3.20231e-10
0.0840003
1.06741e-09
0.0840003
3.12796e-09
0.0840003
7.88061e-09
0.0840003
2.03877e-08
0.0840004
4.8871e-08
0.0840003
1.22696e-07
0.0840009
2.92203e-07
0.0840004
7.24189e-07
0.0840029
1.73423e-06
0.0840027
4.24636e-06
0.0840102
1.03022e-05
0.0840236
2.49134e-05
0.084047
6.12435e-05
0.0841572
0.000148416
0.084338
0.000371739
0.0850082
0.000945238
0.0870245
0.00261562
0.0950147
0.00817322
0.120455
0.0274171
0.132927
0.0816968
0.132945
0.0993328
0.132703
0.0997732
0.0982795
0.129129
0.0840003
3.42612e-11
0.0840003
2.09426e-10
0.0840003
7.31377e-10
0.0840003
2.03847e-09
0.0840003
5.38297e-09
0.0840003
1.32399e-08
0.0840004
3.35853e-08
0.0840004
7.92289e-08
0.0840005
2.01944e-07
0.0840007
4.66329e-07
0.0840009
1.19783e-06
0.0840039
2.75333e-06
0.0840014
7.0669e-06
0.0840255
1.6344e-05
0.0840053
4.16857e-05
0.0841433
9.81428e-05
0.0840956
0.000249401
0.0846755
0.000614647
0.0853295
0.00164905
0.0889353
0.00483048
0.0995715
0.0165415
0.128238
0.0528385
0.133901
0.0936
0.135029
0.0986147
0.099554
0.133726
0.0840003
2.15082e-11
0.0840003
1.34956e-10
0.0840003
4.70329e-10
0.0840003
1.3217e-09
0.0840003
3.44659e-09
0.0840003
8.65548e-09
0.0840003
2.11675e-08
0.0840004
5.21998e-08
0.0840005
1.25282e-07
0.0840004
3.09287e-07
0.0840016
7.35126e-07
0.0840004
1.81739e-06
0.0840091
4.31881e-06
0.0839995
1.06656e-05
0.0840536
2.53824e-05
0.0840045
6.28264e-05
0.084278
0.0001511
0.084205
0.000378565
0.0853066
0.000957104
0.0870647
0.0026339
0.0956697
0.00817526
0.121514
0.0268199
0.135918
0.0790658
0.13622
0.0982661
0.0987609
0.136972
0.0840003
1.32611e-11
0.0840003
9.08447e-11
0.0840003
2.96182e-10
0.0840003
8.83456e-10
0.0840003
2.18643e-09
0.0840003
5.73532e-09
0.0840003
1.35224e-08
0.0840003
3.4298e-08
0.0840005
8.07497e-08
0.0840003
2.00906e-07
0.0840013
4.79609e-07
0.0840003
1.17051e-06
0.0840056
2.8438e-06
0.0840009
6.819e-06
0.0840291
1.68701e-05
0.0840091
3.99516e-05
0.0841417
0.000100358
0.0841361
0.000239761
0.0846829
0.000614154
0.0854479
0.00159289
0.0891672
0.00467055
0.100119
0.015668
0.129926
0.049054
0.137184
0.0909267
0.0974916
0.138415
0.0840003
8.76963e-12
0.0840003
5.58672e-11
0.0840003
1.92937e-10
0.0840003
5.44549e-10
0.0840003
1.41665e-09
0.0840003
3.55938e-09
0.0840003
8.66163e-09
0.0840004
2.14884e-08
0.0840003
5.09343e-08
0.0840005
1.26937e-07
0.0840005
2.97303e-07
0.0840011
7.46297e-07
0.0840022
1.73515e-06
0.0840031
4.36063e-06
0.0840157
1.01675e-05
0.0840101
2.54718e-05
0.0841
5.99114e-05
0.0840801
0.000149716
0.0845173
0.000362815
0.08492
0.000929363
0.0873287
0.002507
0.0950775
0.00770254
0.119207
0.0249087
0.13758
0.0723816
0.0965995
0.138411
0.0840003
5.86717e-12
0.0840003
3.41071e-11
0.0840003
1.25099e-10
0.0840003
3.32765e-10
0.0840003
9.16326e-10
0.0840003
2.16592e-09
0.0840003
5.64201e-09
0.0840003
1.29696e-08
0.0840003
3.32956e-08
0.0840005
7.65959e-08
0.0840003
1.93809e-07
0.0840013
4.5184e-07
0.0840004
1.12424e-06
0.0840055
2.66921e-06
0.0840019
6.50725e-06
0.0840268
1.5787e-05
0.084018
3.78302e-05
0.0841261
9.37358e-05
0.0841741
0.000224324
0.0846572
0.000570219
0.0855168
0.00146122
0.0891494
0.00420199
0.100177
0.0137183
0.130093
0.0422397
0.0866916
0.139895
0.0840003
3.26805e-12
0.0840003
2.24157e-11
0.0840003
7.30817e-11
0.0840003
2.18412e-10
0.0840003
5.37465e-10
0.0840003
1.4179e-09
0.0840003
3.30096e-09
0.0840003
8.46784e-09
0.0840004
1.95535e-08
0.0840003
4.9415e-08
0.0840006
1.15224e-07
0.0840004
2.86569e-07
0.0840017
6.78335e-07
0.0840007
1.65759e-06
0.0840079
4.00115e-06
0.0840038
9.57733e-06
0.0840402
2.3613e-05
0.084031
5.5697e-05
0.0842005
0.000139875
0.08429
0.000333416
0.0850863
0.000858206
0.0867819
0.00226671
0.0937698
0.00684291
0.113918
0.0219631
0.0625925
0.137791
0.0840003
2.13814e-12
0.0840003
1.31203e-11
0.0840003
4.62332e-11
0.0840003
1.27864e-10
0.0840003
3.38887e-10
0.0840003
8.29654e-10
0.0840003
2.07806e-09
0.0840003
4.94803e-09
0.0840003
1.22348e-08
0.0840004
2.89721e-08
0.0840003
7.12719e-08
0.0840007
1.69054e-07
0.0840005
4.13392e-07
0.0840021
9.85604e-07
0.0840018
2.39427e-06
0.0840083
5.75713e-06
0.0840148
1.38343e-05
0.0840346
3.37072e-05
0.0841031
8.04821e-05
0.084202
0.000198988
0.0846233
0.000485259
0.0855621
0.00125261
0.0889736
0.00346461
0.0998643
0.0109707
0.0330833
0.129091
0.0840003
1.26422e-12
0.0840003
7.96696e-12
0.0840003
2.76526e-11
0.0840003
7.75196e-11
0.0840003
2.02212e-10
0.0840003
5.01634e-10
0.0840003
1.23568e-09
0.0840003
2.99426e-09
0.0840003
7.2361e-09
0.0840004
1.75295e-08
0.0840004
4.20235e-08
0.0840005
1.02149e-07
0.0840005
2.43252e-07
0.084001
5.94344e-07
0.0840021
1.41069e-06
0.0840029
3.4491e-06
0.0840135
8.19302e-06
0.0840111
2.00447e-05
0.0840836
4.78013e-05
0.0840715
0.000117189
0.0844455
0.000284554
0.0847012
0.000712958
0.0866171
0.00187003
0.0917119
0.0054868
0.017604
0.107297
0.0840003
7.63463e-13
0.0840003
4.4493e-12
0.0840003
1.63595e-11
0.0840003
4.34e-11
0.0840003
1.19407e-10
0.0840003
2.81766e-10
0.0840003
7.25346e-10
0.0840003
1.67538e-09
0.0840003
4.21891e-09
0.0840003
9.80177e-09
0.0840003
2.41774e-08
0.0840004
5.70354e-08
0.0840004
1.38116e-07
0.0840009
3.32155e-07
0.0840012
7.85624e-07
0.0840026
1.93003e-06
0.0840078
4.48266e-06
0.0840089
1.11751e-05
0.0840519
2.56544e-05
0.084048
6.46463e-05
0.0843007
0.000149367
0.0844015
0.000379318
0.0856422
0.000930042
0.0881568
0.00255512
0.0078023
0.0981013
0.0840003
3.88364e-13
0.0840003
2.61121e-12
0.0840003
8.65003e-12
0.0840003
2.52982e-11
0.0840003
6.31454e-11
0.0840003
1.62069e-10
0.0840003
3.82653e-10
0.0840003
9.47467e-10
0.0840003
2.22344e-09
0.0840003
5.39067e-09
0.0840004
1.27586e-08
0.0840003
3.03952e-08
0.0840005
7.26041e-08
0.0840004
1.70702e-07
0.0840014
4.10468e-07
0.0840011
9.53303e-07
0.0840054
2.30535e-06
0.0840072
5.29465e-06
0.0840228
1.28664e-05
0.0840529
2.93118e-05
0.0841204
7.14006e-05
0.0843302
0.000165025
0.0848082
0.000406671
0.0862498
0.00102097
0.00290385
0.0909528
0.0840003
2.05308e-13
0.0840003
1.34737e-12
0.0840003
4.54264e-12
0.0840003
1.3057e-11
0.0840003
3.28899e-11
0.0840003
8.26213e-11
0.0840003
1.96512e-10
0.0840003
4.77034e-10
0.0840003
1.11542e-09
0.0840003
2.6752e-09
0.0840003
6.22253e-09
0.0840003
1.48119e-08
0.0840004
3.44665e-08
0.0840003
8.0689e-08
0.084001
1.89458e-07
0.0840003
4.36335e-07
0.0840042
1.02877e-06
0.0840004
2.32162e-06
0.0840215
5.53753e-06
0.0840028
1.21793e-05
0.0841019
2.92792e-05
0.0840631
6.4123e-05
0.0844504
0.000155036
0.0847343
0.000362959
0.000946843
0.0866673
0.0840003
9.98843e-14
0.0840003
6.56239e-13
0.0840003
2.22346e-12
0.0840003
6.36192e-12
0.0840003
1.58919e-11
0.0840003
4.03326e-11
0.0840003
9.20216e-11
0.0840003
2.32105e-10
0.0840003
5.02893e-10
0.0840003
1.28595e-09
0.0840003
2.71853e-09
0.0840003
6.92317e-09
0.0840004
1.46117e-08
0.0840003
3.63784e-08
0.0840007
7.87671e-08
0.0839999
1.85026e-07
0.0840029
4.21462e-07
0.0839972
9.25064e-07
0.0840156
2.21175e-06
0.083982
4.55744e-06
0.0840747
1.15149e-05
0.0839278
2.26477e-05
0.0842283
5.82443e-05
0.0840002
0.000124874
0.000330764
0.0846089
0.0840003
6.14146e-14
0.0840003
2.70108e-13
0.0840003
1.21835e-12
0.0840003
2.56813e-12
0.0840003
8.66622e-12
0.0840003
1.59771e-11
0.0840003
5.01169e-11
0.0840003
8.90317e-11
0.0840003
2.70845e-10
0.0840003
4.89161e-10
0.0840003
1.39154e-09
0.0840003
2.71946e-09
0.0840003
6.97167e-09
0.0840004
1.52851e-08
0.0840003
3.32216e-08
0.0840002
8.72142e-08
0.0840008
1.5518e-07
0.083998
4.81851e-07
0.0840064
7.13133e-07
0.0839805
2.62284e-06
0.0840382
3.28457e-06
0.0839072
1.3308e-05
0.0840894
1.70476e-05
0.0837979
5.91031e-05
0.000115747
0.0839763
0.0840003
1.73451e-14
0.0840003
1.92818e-13
0.0840003
4.09964e-13
0.0840003
1.8688e-12
0.0840003
2.858e-12
0.0840003
1.18341e-11
0.0840003
1.50833e-11
0.0840003
6.79477e-11
0.0840003
7.76404e-11
0.0840003
3.6746e-10
0.0840003
4.13894e-10
0.0840003
1.90958e-09
0.0840004
2.3292e-09
0.0840002
9.55534e-09
0.0840005
1.43671e-08
0.0839997
4.42058e-08
0.0840014
8.80427e-08
0.0839971
2.04245e-07
0.084004
5.416e-07
0.083985
8.44339e-07
0.0840085
3.31951e-06
0.0839336
3.67234e-06
0.0839857
1.58128e-05
0.0837588
2.06209e-05
6.98062e-05
0.083706
0.0840003
1.3685e-14
0.0840003
8.75029e-14
0.0840003
2.92479e-13
0.0840003
8.17463e-13
0.0840003
2.16701e-12
0.0840003
4.81436e-12
0.0840003
1.37546e-11
0.0840003
2.56663e-11
0.0840003
8.20171e-11
0.0840003
1.31819e-10
0.0840003
4.81043e-10
0.0840003
6.79954e-10
0.0840003
2.76285e-09
0.0840004
3.39735e-09
0.084
1.57292e-08
0.0840008
1.70991e-08
0.0839989
8.6488e-08
0.0840016
9.08294e-08
0.0839942
4.44345e-07
0.0839993
5.60161e-07
0.0839754
2.17421e-06
0.0839786
3.64697e-06
0.0838856
1.04789e-05
0.0838324
2.36898e-05
6.42506e-05
0.0835002
0.0840003
9.77517e-15
0.0840003
5.11121e-14
0.0840003
2.1182e-13
0.0840003
5.20152e-13
0.0840003
1.55205e-12
0.0840003
3.6075e-12
0.0840003
9.59309e-12
0.0840003
2.13918e-11
0.0840003
5.87346e-11
0.0840003
1.23959e-10
0.0840003
3.43885e-10
0.0840003
7.01707e-10
0.0840003
2.0266e-09
0.0840003
3.89542e-09
0.0840002
1.11925e-08
0.0840002
2.31403e-08
0.084
6.03443e-08
0.083998
1.33068e-07
0.0840014
3.34318e-07
0.0839816
7.77652e-07
0.0840101
1.83167e-06
0.0839117
4.42265e-06
0.0839755
1.04779e-05
0.0837124
2.62373e-05
6.99348e-05
0.0835663
0.0840003
6.91482e-15
0.0840003
5.32135e-14
0.0840003
1.41137e-13
0.0840003
5.20241e-13
0.0840003
1.04259e-12
0.0840003
3.54823e-12
0.0840003
6.37473e-12
0.0840003
2.33498e-11
0.0840003
3.57367e-11
0.0840003
1.47907e-10
0.0840003
2.05441e-10
0.0840003
9.00423e-10
0.0840003
1.17604e-09
0.0840003
5.40421e-09
0.0840003
6.93315e-09
0.084
3.06616e-08
0.0840005
4.59942e-08
0.0839969
1.59837e-07
0.0840039
3.04127e-07
0.0839767
8.29674e-07
0.084021
1.87545e-06
0.0838911
4.25593e-06
0.0840034
1.06467e-05
0.0836745
2.50869e-05
6.82216e-05
0.0835865
0.0840003
6.18971e-15
0.0840003
3.45305e-14
0.0840003
1.34549e-13
0.0840003
3.43638e-13
0.0840003
9.58699e-13
0.0840003
2.38561e-12
0.0840003
5.70031e-12
0.0840003
1.54348e-11
0.0840003
3.45887e-11
0.0840003
9.90898e-11
0.0840003
2.05326e-10
0.0840003
6.42085e-10
0.0840003
1.17891e-09
0.0840004
4.07723e-09
0.0840001
7.24909e-09
0.0840005
2.49971e-08
0.0839994
3.97109e-08
0.0839994
1.54347e-07
0.0839978
2.15419e-07
0.0839892
8.16061e-07
0.0839898
1.2804e-06
0.0839441
4.32862e-06
0.0839131
7.699e-06
0.0837667
2.32221e-05
5.48183e-05
0.0834941
0.0840003
1.00761e-14
0.0840003
-2.53573e-15
0.0840003
1.8527e-13
0.0840003
-2.55406e-14
0.0840003
1.30016e-12
0.0840003
3.7413e-13
0.0840003
7.5694e-12
0.0840003
5.70846e-12
0.0840003
3.89113e-11
0.0840003
6.29121e-11
0.0840003
1.89834e-10
0.0840003
5.24159e-10
0.0840003
8.79092e-10
0.0840004
4.00162e-09
0.084
3.54015e-09
0.0840007
2.78918e-08
0.0839988
1.50159e-08
0.0840013
1.78242e-07
0.0839935
3.32223e-08
0.0839986
1.12501e-06
0.0839707
-5.97976e-08
0.083975
5.74914e-06
0.0838633
1.69975e-06
0.0838081
2.15751e-05
3.32899e-05
0.0834414
0.0840003
4.76051e-15
0.0840003
6.14613e-15
0.0840003
7.84275e-14
0.0840003
5.31482e-14
0.0840003
6.25475e-13
0.0840003
3.20535e-13
0.0840003
4.36327e-12
0.0840003
2.58105e-12
0.0840003
2.85054e-11
0.0840003
1.49744e-11
0.0840003
1.79335e-10
0.0840003
5.54491e-11
0.0840003
1.05594e-09
0.0840003
4.79327e-10
0.0840001
5.23836e-09
0.0840006
5.57276e-09
0.0839985
2.23135e-08
0.0840028
5.24792e-08
0.0839881
8.14566e-08
0.0840171
3.87218e-07
0.0839324
3.23531e-07
0.0840581
2.21697e-06
0.083748
2.35696e-06
0.0839283
1.0196e-05
1.72526e-05
0.0833446
0.0840003
0.0840003
0.0840003
0.0840003
0.0840003
0.0840003
0.0840003
0.0840003
0.0840003
0.0840003
0.0840003
0.0840003
0.0840003
0.0840003
0.0840003
0.0840001
0.0839996
0.0840001
0.083993
0.0840035
0.0839545
0.0840053
0.0838225
0.083831
0.0834124
0.0413946
0.043341
0.0201014
0.0211609
-8.54241e-05
0.0198898
-0.0141088
0.0140038
-0.0199851
0.00589103
-0.0244211
0.00443123
-0.0262377
0.00181102
-0.0271666
0.000934975
-0.0287289
0.0015674
-0.0304327
0.00170224
-0.0318721
0.00143683
-0.0330042
0.00112993
-0.0340287
0.001026
-0.0350141
0.000983949
-0.0359288
0.000911715
-0.0367237
0.000787881
-0.0373177
0.000588871
-0.0376575
0.000339733
-0.0379096
0.000220478
-0.038315
0.000356203
-0.0387259
0.000354332
-0.0390176
0.00023348
-0.0391815
6.92042e-05
-0.0391341
-0.000173787
-0.038737
-0.000549568
-0.0378897
-0.00101571
-0.0366165
-0.00144008
-0.0350194
-0.00176354
-0.0331728
-0.00200213
-0.0311457
-0.00217453
-0.0289667
-0.00230984
-0.0267036
-0.00239112
-0.0243792
-0.00243268
-0.0220383
-0.00243144
-0.0196994
-0.00243145
-0.0173329
-0.00244816
-0.0149613
-0.00245483
-0.0125323
-0.00250809
-0.0101057
-0.00250336
-0.00770693
-0.00247253
-0.00533408
-0.00244297
-0.0029634
-0.00243571
-0.000564555
-0.00246011
0.00184972
-0.00248016
0.00413256
-0.00234866
0.00629184
-0.00222328
0.00837216
-0.00214506
0.0103673
-0.00205742
0.0122736
-0.00196951
0.0140997
-0.00188698
0.0158874
-0.00183854
0.0176389
-0.00180103
0.0193287
-0.00173619
0.0209514
-0.00166269
0.0225102
-0.00159154
0.0240037
-0.00151991
0.0254371
-0.00145251
0.0268125
-0.00138623
0.0281353
-0.00132361
0.0294044
-0.00126211
0.0306228
-0.00120345
0.0317905
-0.00114651
0.0329115
-0.00109217
0.0339869
-0.00103991
0.0350184
-0.000989955
0.0360066
-0.000942082
0.0369531
-0.00089629
0.0378592
-0.000852562
0.0387263
-0.000810744
0.0395549
-0.000770842
0.040346
-0.000732604
0.0410995
-0.000696112
0.0418166
-0.000660955
0.0424982
-0.000627316
0.043145
-0.000594703
0.0437578
-0.000563306
0.0443367
-0.000532666
0.0448828
-0.000502961
0.0453957
-0.000473855
0.045878
-0.000445475
0.0463281
-0.000417683
0.0467496
-0.000390458
0.0471401
-0.000363916
0.0475034
-0.000337802
0.0478381
-0.000312451
0.0481456
-0.000287421
0.0484286
-0.000263109
0.048684
-0.000238996
0.0489178
-0.000215364
0.0491245
-0.000191696
0.0493094
-0.00016813
0.0494699
-0.000144308
0.0496055
-0.000119783
0.0497182
-9.41037e-05
0.0498019
-6.66114e-05
0.0498591
-3.612e-05
0.0498803
-1.8755e-06
0.0498672
3.5864e-05
0.0498068
8.28192e-05
0.000138526
0.0591513
0.0641
0.0420691
0.0381531
0.0316562
0.0300099
0.0235342
0.0221057
0.0131998
0.0162754
0.00559122
0.0120439
-0.00201436
0.00940425
-0.0085467
0.00749875
-0.0130254
0.00608775
-0.0160217
0.00473356
-0.0180569
0.00349994
-0.0194196
0.00251261
-0.0207673
0.00238852
-0.0222119
0.00244746
-0.0235661
0.00227109
-0.0247435
0.00196869
-0.0257191
0.00155969
-0.0264793
0.0010898
-0.0270095
0.000728311
-0.027422
0.000723139
-0.0277918
0.00067052
-0.0279422
0.000327517
-0.0277968
-0.000167196
-0.0272882
-0.000810572
-0.0263681
-0.00163702
-0.0249234
-0.00265071
-0.0230862
-0.00347611
-0.0209856
-0.00405262
-0.0187097
-0.00446117
-0.0163359
-0.00472375
-0.0138589
-0.00494778
-0.0113602
-0.00503591
-0.00888466
-0.00503566
-0.00642554
-0.00500867
-0.0039754
-0.00499156
-0.00151923
-0.00500838
0.000977259
-0.00505503
0.00337494
-0.00500521
0.0056952
-0.00491754
0.00797161
-0.00483726
0.0102108
-0.00476583
0.012383
-0.00468544
0.0144755
-0.0046209
0.0164615
-0.00453274
0.0184451
-0.00439216