/*--------------------------------*- C++ -*----------------------------------*\
  =========                 |
  \\      /  F ield         | OpenFOAM: The Open Source CFD Toolbox
   \\    /   O peration     | Website:  https://openfoam.org
    \\  /    A nd           | Version:  13
     \\/     M anipulation  |
\*---------------------------------------------------------------------------*/
FoamFile
{
    format      ascii;
    class       volVectorField;
    location    "7";
    object      U;
}
// * * * * * * * * * * * * * * * * * * * * * * * * * * * * * * * * * * * * * //

dimensions      [0 1 -1 0 0 0 0];

internalField   nonuniform List<vector> 
5250
(
(3 2.34908e-08 0)
(2.99998 9.77483e-09 0)
(2.99996 4.3786e-07 0)
(2.9999 1.11788e-07 0)
(2.99975 2.92166e-06 0)
(2.99937 2.01852e-06 0)
(2.99846 1.70267e-05 0)
(2.99615 1.88442e-05 0)
(2.99054 9.26494e-05 0)
(2.97623 0.000153399 0)
(2.93905 0.000497811 0)
(2.83599 0.00116835 0)
(2.53521 0.00333788 0)
(1.67738 0.00956923 0)
(0.767173 0.0244976 0)
(0.503144 0.0236873 0)
(0.549766 0.0240052 0)
(0.555989 0.0257699 0)
(0.503417 0.0275961 0)
(0.416239 0.0295081 0)
(0.333158 0.0318242 0)
(0.264429 0.0345727 0)
(0.1956 0.037489 0)
(0.117476 0.0408912 0)
(0.0509139 0.0456455 0)
(3 6.14022e-08 0)
(2.99999 1.28378e-07 0)
(2.99996 1.10309e-06 0)
(2.9999 1.26971e-06 0)
(2.99975 7.86315e-06 0)
(2.99938 9.21025e-06 0)
(2.99847 4.98789e-05 0)
(2.99621 6.18588e-05 0)
(2.99065 0.000286273 0)
(2.97658 0.000462571 0)
(2.93988 0.001551 0)
(2.83839 0.00358247 0)
(2.54204 0.0104037 0)
(1.6944 0.0296676 0)
(0.776966 0.074558 0)
(0.499893 0.0682768 0)
(0.548797 0.0662286 0)
(0.556112 0.0691234 0)
(0.503356 0.0721526 0)
(0.416238 0.075455 0)
(0.333197 0.0793428 0)
(0.263953 0.0836684 0)
(0.194142 0.0877309 0)
(0.11474 0.0917125 0)
(0.0477464 0.0955348 0)
(3 6.98383e-08 0)
(2.99999 3.93972e-07 0)
(2.99996 1.35518e-06 0)
(2.9999 3.82791e-06 0)
(2.99975 1.02899e-05 0)
(2.9994 2.35409e-05 0)
(2.9985 6.92168e-05 0)
(2.99635 0.000138091 0)
(2.99088 0.000423647 0)
(2.97729 0.000887081 0)
(2.94165 0.00249955 0)
(2.84336 0.0062304 0)
(2.55699 0.0176686 0)
(1.732 0.0507964 0)
(0.800052 0.129023 0)
(0.495564 0.1157 0)
(0.549814 0.111068 0)
(0.559947 0.116215 0)
(0.507344 0.121939 0)
(0.420767 0.128621 0)
(0.33806 0.135964 0)
(0.268363 0.143833 0)
(0.197484 0.151376 0)
(0.11656 0.158323 0)
(0.0475789 0.163279 0)
(3 8.36801e-08 0)
(2.99999 5.62252e-07 0)
(2.99996 1.81725e-06 0)
(2.99991 5.50485e-06 0)
(2.99977 1.36221e-05 0)
(2.99943 3.5853e-05 0)
(2.99857 8.6473e-05 0)
(2.99651 0.000218514 0)
(2.99128 0.000533964 0)
(2.9783 0.00133763 0)
(2.94437 0.00337236 0)
(2.85095 0.00885747 0)
(2.57958 0.0245963 0)
(1.79065 0.0711318 0)
(0.836149 0.183618 0)
(0.490021 0.162514 0)
(0.553215 0.15502 0)
(0.568103 0.162517 0)
(0.516025 0.171133 0)
(0.430378 0.181621 0)
(0.34804 0.192803 0)
(0.277888 0.204749 0)
(0.205702 0.216549 0)
(0.122271 0.227273 0)
(0.0495934 0.233864 0)
(3 1.0838e-07 0)
(2.99999 6.47736e-07 0)
(2.99996 2.40788e-06 0)
(2.99991 6.36347e-06 0)
(2.99978 1.76799e-05 0)
(2.99946 4.37196e-05 0)
(2.99866 0.000108508 0)
(2.99672 0.000277432 0)
(2.99181 0.000664499 0)
(2.97965 0.00171112 0)
(2.94793 0.00425209 0)
(2.86105 0.0112408 0)
(2.60926 0.0310662 0)
(1.87043 0.0899862 0)
(0.885599 0.237749 0)
(0.484775 0.209601 0)
(0.559849 0.198978 0)
(0.581039 0.208478 0)
(0.529719 0.219729 0)
(0.445307 0.234028 0)
(0.363298 0.249238 0)
(0.292601 0.265708 0)
(0.218782 0.282516 0)
(0.131786 0.298076 0)
(0.0535899 0.307314 0)
(3 1.23333e-07 0)
(2.99999 7.92699e-07 0)
(2.99997 2.69913e-06 0)
(2.99992 7.75974e-06 0)
(2.9998 2.0145e-05 0)
(2.9995 5.19439e-05 0)
(2.99876 0.00012853 0)
(2.99697 0.000323234 0)
(2.99247 0.000798562 0)
(2.98129 0.00199169 0)
(2.95229 0.00504434 0)
(2.8734 0.013163 0)
(2.64551 0.0364755 0)
(1.97165 0.105507 0)
(0.951324 0.287463 0)
(0.484948 0.256909 0)
(0.572341 0.243475 0)
(0.6005 0.254344 0)
(0.549908 0.267978 0)
(0.466867 0.286467 0)
(0.385066 0.306393 0)
(0.313722 0.328392 0)
(0.237973 0.351697 0)
(0.146279 0.374204 0)
(0.0603077 0.388471 0)
(3 1.21691e-07 0)
(2.99999 9.09338e-07 0)
(2.99997 2.77886e-06 0)
(2.99993 8.91229e-06 0)
(2.99982 2.08727e-05 0)
(2.99955 5.93728e-05 0)
(2.99888 0.000132835 0)
(2.99728 0.000368817 0)
(2.9932 0.000834367 0)
(2.98319 0.00224281 0)
(2.95725 0.0054055 0)
(2.8873 0.014483 0)
(2.68688 0.0396112 0)
(2.09068 0.115335 0)
(1.03659 0.326958 0)
(0.500034 0.306675 0)
(0.594535 0.292846 0)
(0.628701 0.302686 0)
(0.578888 0.31713 0)
(0.497452 0.339554 0)
(0.415533 0.364765 0)
(0.343427 0.393507 0)
(0.265662 0.425356 0)
(0.168423 0.458321 0)
(0.0715548 0.482604 0)
(3 1.25892e-07 0)
(2.99999 8.48035e-07 0)
(2.99997 2.77086e-06 0)
(2.99993 8.34484e-06 0)
(2.99984 2.07298e-05 0)
(2.9996 5.55419e-05 0)
(2.99902 0.000132174 0)
(2.99756 0.000343295 0)
(2.99404 0.000825774 0)
(2.9851 0.00210774 0)
(2.96251 0.00523448 0)
(2.90199 0.0136851 0)
(2.73041 0.0373557 0)
(2.22443 0.107848 0)
(1.15372 0.316704 0)
(0.552814 0.34387 0)
(0.63575 0.344252 0)
(0.669492 0.352732 0)
(0.620013 0.367677 0)
(0.540356 0.393964 0)
(0.45786 0.425097 0)
(0.384748 0.46186 0)
(0.305484 0.504633 0)
(0.203065 0.553216 0)
(0.0912641 0.598267 0)
(3 1.25658e-07 0)
(2.99999 7.17301e-07 0)
(2.99998 2.66486e-06 0)
(2.99994 7.00597e-06 0)
(2.99986 1.98153e-05 0)
(2.99965 4.63733e-05 0)
(2.99912 0.000124887 0)
(2.99786 0.00028651 0)
(2.99467 0.000755383 0)
(2.98686 0.00177957 0)
(2.96691 0.00458178 0)
(2.9141 0.0115444 0)
(2.76574 0.0311701 0)
(2.32879 0.0880775 0)
(1.27386 0.26198 0)
(0.601576 0.375333 0)
(0.664468 0.40373 0)
(0.69999 0.403493 0)
(0.660058 0.419913 0)
(0.588454 0.448936 0)
(0.509483 0.487215 0)
(0.438236 0.532918 0)
(0.361082 0.588729 0)
(0.25922 0.661865 0)
(0.127952 0.750486 0)
(3 1.03006e-07 0)
(2.99999 6.99591e-07 0)
(2.99998 2.29566e-06 0)
(2.99995 6.80262e-06 0)
(2.99987 1.70386e-05 0)
(2.99968 4.48587e-05 0)
(2.99922 0.000106627 0)
(2.99808 0.000275551 0)
(2.99528 0.000649234 0)
(2.98829 0.00166335 0)
(2.97063 0.00402397 0)
(2.92413 0.0103637 0)
(2.79376 0.0273116 0)
(2.41166 0.0763937 0)
(1.41065 0.225758 0)
(0.67406 0.422833 0)
(0.676432 0.457397 0)
(0.706756 0.453294 0)
(0.690034 0.47181 0)
(0.634344 0.502042 0)
(0.566383 0.5479 0)
(0.502511 0.602727 0)
(0.437569 0.676852 0)
(0.35338 0.791905 0)
(0.198187 0.998629 0)
(3 1.03918e-07 0)
(2.99999 6.55791e-07 0)
(2.99998 2.25638e-06 0)
(2.99995 6.40295e-06 0)
(2.99989 1.68074e-05 0)
(2.99972 4.22152e-05 0)
(2.99931 0.000106018 0)
(2.99831 0.000258979 0)
(2.99583 0.000645528 0)
(2.98968 0.00157907 0)
(2.97415 0.00393839 0)
(2.93347 0.00996526 0)
(2.82045 0.0262723 0)
(2.49004 0.0733032 0)
(1.57848 0.214353 0)
(0.775889 0.471665 0)
(0.683319 0.491395 0)
(0.713369 0.493507 0)
(0.714292 0.514906 0)
(0.676971 0.548957 0)
(0.626012 0.600069 0)
(0.579023 0.664585 0)
(0.546252 0.755728 0)
(0.542631 0.89813 0)
(0.57614 1.14034 0)
(3 1.10611e-07 0)
(2.99999 6.29564e-07 0)
(2.99998 2.35482e-06 0)
(2.99996 6.12696e-06 0)
(2.9999 1.73945e-05 0)
(2.99976 4.06368e-05 0)
(2.9994 0.000108698 0)
(2.99853 0.000252321 0)
(2.99638 0.000656947 0)
(2.99104 0.00155747 0)
(2.97762 0.00398675 0)
(2.94273 0.00989375 0)
(2.84646 0.0262085 0)
(2.56724 0.072584 0)
(1.76635 0.210902 0)
(0.901027 0.515395 0)
(0.692508 0.521472 0)
(0.724391 0.525361 0)
(0.740055 0.547232 0)
(0.719076 0.586901 0)
(0.687108 0.641092 0)
(0.662645 0.712966 0)
(0.663822 0.811303 0)
(0.718004 0.948098 0)
(0.847668 1.12772 0)
(3 9.75627e-08 0)
(3 6.72077e-07 0)
(2.99999 2.1358e-06 0)
(2.99997 6.55375e-06 0)
(2.99992 1.59255e-05 0)
(2.9998 4.29988e-05 0)
(2.99949 0.000102153 0)
(2.99877 0.000262916 0)
(2.99691 0.00063654 0)
(2.99245 0.00159538 0)
(2.9811 0.00394953 0)
(2.95201 0.00999951 0)
(2.87264 0.0261062 0)
(2.64405 0.0722054 0)
(1.97347 0.209228 0)
(1.05073 0.552846 0)
(0.714884 0.556372 0)
(0.74505 0.558888 0)
(0.771523 0.575013 0)
(0.764512 0.616612 0)
(0.748782 0.672999 0)
(0.746173 0.745718 0)
(0.771932 0.838865 0)
(0.848589 0.951572 0)
(0.994352 1.0619 0)
(3 9.31621e-08 0)
(3 6.07392e-07 0)
(2.99999 2.06105e-06 0)
(2.99997 5.94736e-06 0)
(2.99993 1.54131e-05 0)
(2.99983 3.97932e-05 0)
(2.99959 9.76635e-05 0)
(2.99898 0.000247957 0)
(2.99749 0.000601357 0)
(2.9938 0.0015253 0)
(2.98463 0.00373745 0)
(2.96117 0.00952433 0)
(2.89847 0.0246396 0)
(2.72038 0.0677127 0)
(2.19536 0.195686 0)
(1.23815 0.552683 0)
(0.775653 0.592681 0)
(0.785398 0.600663 0)
(0.813117 0.606372 0)
(0.817685 0.642594 0)
(0.812295 0.697197 0)
(0.823098 0.764848 0)
(0.862734 0.844734 0)
(0.944168 0.932116 0)
(1.0816 1.00345 0)
(3 8.27306e-08 0)
(3 5.16655e-07 0)
(2.99999 1.79971e-06 0)
(2.99998 5.05397e-06 0)
(2.99994 1.33768e-05 0)
(2.99986 3.3736e-05 0)
(2.99966 8.4022e-05 0)
(2.99918 0.000209148 0)
(2.99798 0.000512109 0)
(2.99507 0.00128001 0)
(2.98776 0.00313565 0)
(2.96945 0.00790255 0)
(2.9212 0.0201544 0)
(2.78737 0.0542444 0)
(2.39844 0.154299 0)
(1.46534 0.458393 0)
(0.877091 0.613323 0)
(0.841362 0.639371 0)
(0.86018 0.646419 0)
(0.875185 0.670724 0)
(0.876861 0.716906 0)
(0.893483 0.775537 0)
(0.938128 0.841282 0)
(1.01737 0.908339 0)
(1.14082 0.959528 0)
(3 6.48401e-08 0)
(3 4.50349e-07 0)
(2.99999 1.44111e-06 0)
(2.99998 4.38406e-06 0)
(2.99996 1.06817e-05 0)
(2.99989 2.88238e-05 0)
(2.99973 6.68794e-05 0)
(2.99933 0.000176095 0)
(2.99838 0.000406273 0)
(2.99598 0.0010566 0)
(2.99015 0.00247578 0)
(2.97535 0.00633805 0)
(2.937 0.0156475 0)
(2.83123 0.0413863 0)
(2.52582 0.114151 0)
(1.69399 0.339308 0)
(0.985375 0.645068 0)
(0.879487 0.676416 0)
(0.895396 0.689 0)
(0.920414 0.700759 0)
(0.934323 0.735204 0)
(0.956065 0.783171 0)
(1.00162 0.836204 0)
(1.07608 0.88786 0)
(1.18494 0.926549 0)
(3 6.32491e-08 0)
(3 3.60014e-07 0)
(2.99999 1.34181e-06 0)
(2.99999 3.51129e-06 0)
(2.99996 9.89402e-06 0)
(2.99991 2.32876e-05 0)
(2.99979 6.19315e-05 0)
(2.99947 0.000143308 0)
(2.99871 0.000374164 0)
(2.99679 0.000874058 0)
(2.99216 0.00224852 0)
(2.98041 0.00539131 0)
(2.95032 0.0138269 0)
(2.86835 0.0356207 0)
(2.63321 0.0982846 0)
(1.95499 0.285992 0)
(1.14562 0.679298 0)
(0.912799 0.70943 0)
(0.922238 0.722737 0)
(0.953643 0.726537 0)
(0.981959 0.749834 0)
(1.01019 0.788628 0)
(1.0556 0.831648 0)
(1.12457 0.871903 0)
(1.2202 0.901559 0)
(3 5.34033e-08 0)
(3 3.10298e-07 0)
(3 1.13276e-06 0)
(2.99999 3.03299e-06 0)
(2.99997 8.3989e-06 0)
(2.99993 2.00982e-05 0)
(2.99983 5.29827e-05 0)
(2.99959 0.000124045 0)
(2.99899 0.000323694 0)
(2.99755 0.00075938 0)
(2.99391 0.0019653 0)
(2.985 0.00471397 0)
(2.96216 0.0121003 0)
(2.90142 0.0309661 0)
(2.73005 0.0848046 0)
(2.22616 0.244471 0)
(1.36083 0.662085 0)
(0.979703 0.73364 0)
(0.962423 0.746292 0)
(0.987115 0.749291 0)
(1.02489 0.762827 0)
(1.05934 0.792997 0)
(1.10339 0.82783 0)
(1.16623 0.859637 0)
(1.25021 0.88259 0)
(3 4.03868e-08 0)
(3 2.60416e-07 0)
(3 8.81402e-07 0)
(2.99999 2.54304e-06 0)
(2.99998 6.53209e-06 0)
(2.99995 1.683e-05 0)
(2.99987 4.10007e-05 0)
(2.99969 0.000103454 0)
(2.99924 0.000250112 0)
(2.99816 0.000627502 0)
(2.99546 0.00152075 0)
(2.98886 0.00381638 0)
(2.97219 0.00940126 0)
(2.92892 0.0241261 0)
(2.81001 0.064205 0)
(2.46697 0.182043 0)
(1.63421 0.534133 0)
(1.09155 0.73964 0)
(1.01876 0.765224 0)
(1.03017 0.775619 0)
(1.06754 0.780837 0)
(1.10561 0.800306 0)
(1.14746 0.826533 0)
(1.20388 0.85119 0)
(1.27753 0.868822 0)
(3 3.14903e-08 0)
(3 2.07559e-07 0)
(3 6.85574e-07 0)
(2.99999 2.01966e-06 0)
(2.99998 5.07595e-06 0)
(2.99996 1.32194e-05 0)
(2.9999 3.19707e-05 0)
(2.99977 8.00643e-05 0)
(2.99943 0.000194557 0)
(2.9986 0.000478532 0)
(2.99657 0.00117286 0)
(2.99157 0.00286758 0)
(2.97908 0.00710709 0)
(2.94692 0.0177344 0)
(2.85962 0.0461849 0)
(2.61075 0.126403 0)
(1.91626 0.374843 0)
(1.22861 0.74735 0)
(1.0635 0.787822 0)
(1.06519 0.804309 0)
(1.10037 0.80394 0)
(1.14423 0.810018 0)
(1.18665 0.827705 0)
(1.23818 0.846359 0)
(1.30316 0.859675 0)
(3 2.46783e-08 0)
(3 1.66011e-07 0)
(3 5.41467e-07 0)
(3 1.61702e-06 0)
(2.99999 4.03276e-06 0)
(2.99997 1.05942e-05 0)
(2.99993 2.54687e-05 0)
(2.99983 6.45187e-05 0)
(2.99957 0.000155646 0)
(2.99897 0.000387586 0)
(2.99745 0.000947718 0)
(2.9938 0.0023317 0)
(2.98457 0.00578987 0)
(2.96132 0.0144149 0)
(2.89922 0.0372857 0)
(2.72462 0.100979 0)
(2.21346 0.293019 0)
(1.43313 0.73459 0)
(1.12516 0.812572 0)
(1.10443 0.826167 0)
(1.12788 0.82574 0)
(1.17465 0.822292 0)
(1.22175 0.831725 0)
(1.27019 0.844778 0)
(1.32786 0.854378 0)
(3 1.91769e-08 0)
(3 1.24567e-07 0)
(3 4.24529e-07 0)
(3 1.21235e-06 0)
(2.99999 3.14785e-06 0)
(2.99998 8.04349e-06 0)
(2.99995 1.95702e-05 0)
(2.99988 4.97016e-05 0)
(2.9997 0.000117639 0)
(2.99926 0.000301801 0)
(2.99819 0.000708299 0)
(2.9956 0.00182144 0)
(2.98915 0.00432462 0)
(2.97313 0.0110463 0)
(2.93152 0.0276562 0)
(2.81826 0.0741528 0)
(2.49159 0.209804 0)
(1.72293 0.5978 0)
(1.2387 0.811383 0)
(1.15952 0.83713 0)
(1.16594 0.845354 0)
(1.2065 0.839353 0)
(1.25494 0.839741 0)
(1.30094 0.846574 0)
(1.35244 0.852519 0)
(3 1.46115e-08 0)
(3 9.18505e-08 0)
(3 3.18629e-07 0)
(3 8.92821e-07 0)
(2.99999 2.35285e-06 0)
(2.99999 5.89313e-06 0)
(2.99996 1.45906e-05 0)
(2.99991 3.61252e-05 0)
(2.99978 8.73291e-05 0)
(2.99947 0.000217485 0)
(2.99872 0.000520347 0)
(2.99681 0.00130361 0)
(2.99226 0.00312065 0)
(2.98075 0.00783064 0)
(2.95154 0.0193201 0)
(2.87298 0.0502349 0)
(2.65072 0.136751 0)
(2.0306 0.403404 0)
(1.38563 0.800751 0)
(1.20805 0.853943 0)
(1.2007 0.867006 0)
(1.23232 0.861595 0)
(1.28223 0.852455 0)
(1.3291 0.851816 0)
(1.37659 0.853626 0)
(3 1.11113e-08 0)
(3 6.837e-08 0)
(3 2.38519e-07 0)
(3 6.65005e-07 0)
(3 1.75828e-06 0)
(2.99999 4.36673e-06 0)
(2.99997 1.09885e-05 0)
(2.99994 2.65495e-05 0)
(2.99985 6.64959e-05 0)
(2.99963 0.000158986 0)
(2.9991 0.000398954 0)
(2.99777 0.00095558 0)
(2.99458 0.00239202 0)
(2.98661 0.0058155 0)
(2.96668 0.01457 0)
(2.91421 0.0371363 0)
(2.76948 0.0996258 0)
(2.34716 0.287331 0)
(1.62273 0.728093 0)
(1.28795 0.860446 0)
(1.24479 0.880763 0)
(1.26027 0.882647 0)
(1.30501 0.869583 0)
(1.35404 0.86152 0)
(1.40006 0.858364 0)
(3 8.2172e-09 0)
(3 4.92023e-08 0)
(3 1.75139e-07 0)
(3 4.78693e-07 0)
(3 1.28905e-06 0)
(2.99999 3.14067e-06 0)
(2.99998 8.06099e-06 0)
(2.99996 1.90578e-05 0)
(2.9999 4.8629e-05 0)
(2.99974 0.00011402 0)
(2.99938 0.000290491 0)
(2.99847 0.000683704 0)
(2.99631 0.00173074 0)
(2.99089 0.00413167 0)
(2.97759 0.0103963 0)
(2.94334 0.0258523 0)
(2.85137 0.0680777 0)
(2.58925 0.18933 0)
(1.92758 0.542419 0)
(1.41426 0.844277 0)
(1.29769 0.887904 0)
(1.29447 0.899956 0)
(1.32769 0.889645 0)
(1.37625 0.874348 0)
(1.42213 0.866552 0)
(3 5.56301e-09 0)
(3 3.62667e-08 0)
(3 1.2063e-07 0)
(3 3.52495e-07 0)
(3 8.90643e-07 0)
(3 2.30029e-06 0)
(2.99999 5.58788e-06 0)
(2.99997 1.3873e-05 0)
(2.99993 3.38537e-05 0)
(2.99983 8.237e-05 0)
(2.99957 0.000203448 0)
(2.99897 0.000487644 0)
(2.99746 0.00122063 0)
(2.99383 0.00291247 0)
(2.98475 0.00731706 0)
(2.96199 0.0178946 0)
(2.9018 0.0462206 0)
(2.73467 0.123919 0)
(2.25456 0.361116 0)
(1.60716 0.800648 0)
(1.36036 0.897433 0)
(1.33141 0.913858 0)
(1.34853 0.910228 0)
(1.39342 0.891904 0)
(1.44204 0.878275 0)
(3 3.86445e-09 0)
(3 2.53554e-08 0)
(3 8.5157e-08 0)
(3 2.46387e-07 0)
(3 6.27695e-07 0)
(3 1.61991e-06 0)
(2.99999 3.88496e-06 0)
(2.99998 9.86313e-06 0)
(2.99995 2.32671e-05 0)
(2.99988 5.89681e-05 0)
(2.99972 0.000138741 0)
(2.99932 0.000350675 0)
(2.99833 0.000829521 0)
(2.99597 0.00208485 0)
(2.99007 0.00500748 0)
(2.97563 0.0125353 0)
(2.9384 0.031372 0)
(2.83876 0.0828179 0)
(2.55217 0.233771 0)
(1.9 0.633182 0)
(1.47441 0.877565 0)
(1.3845 0.915507 0)
(1.38099 0.924761 0)
(1.41297 0.911576 0)
(1.45999 0.890504 0)
(3 2.7772e-09 0)
(3 1.69505e-08 0)
(3 6.00899e-08 0)
(3 1.64555e-07 0)
(3 4.41352e-07 0)
(3 1.08324e-06 0)
(2.99999 2.72066e-06 0)
(2.99999 6.60048e-06 0)
(2.99997 1.61545e-05 0)
(2.99992 3.95244e-05 0)
(2.99981 9.51794e-05 0)
(2.99954 0.000235936 0)
(2.9989 0.000560672 0)
(2.99731 0.00140374 0)
(2.99345 0.00333604 0)
(2.98392 0.00836883 0)
(2.95988 0.0204049 0)
(2.89653 0.0527066 0)
(2.7205 0.1414 0)
(2.22708 0.408974 0)
(1.64362 0.834842 0)
(1.44088 0.920117 0)
(1.41545 0.935106 0)
(1.43056 0.929749 0)
(1.47258 0.90701 0)
(3 1.8871e-09 0)
(3 1.14825e-08 0)
(3 4.05426e-08 0)
(3 1.1149e-07 0)
(3 2.9788e-07 0)
(3 7.30282e-07 0)
(3 1.84516e-06 0)
(2.99999 4.42111e-06 0)
(2.99998 1.09986e-05 0)
(2.99995 2.63669e-05 0)
(2.99988 6.4991e-05 0)
(2.99971 0.000156791 0)
(2.9993 0.000383893 0)
(2.99828 0.000932993 0)
(2.99587 0.00227427 0)
(2.98984 0.00558215 0)
(2.97514 0.0137035 0)
(2.9373 0.0346125 0)
(2.83642 0.0907946 0)
(2.54616 0.257491 0)
(1.92486 0.669338 0)
(1.54549 0.892539 0)
(1.46575 0.931087 0)
(1.46033 0.939627 0)
(1.48855 0.925704 0)
(3 1.22294e-09 0)
(3 7.79517e-09 0)
(3 2.63362e-08 0)
(3 7.55703e-08 0)
(3 1.93561e-07 0)
(3 4.90957e-07 0)
(3 1.20207e-06 0)
(2.99999 2.94605e-06 0)
(2.99999 7.20046e-06 0)
(2.99997 1.73541e-05 0)
(2.99992 4.26931e-05 0)
(2.99981 0.000101884 0)
(2.99955 0.000252576 0)
(2.99889 0.000598837 0)
(2.99733 0.00149073 0)
(2.99343 0.00354962 0)
(2.98401 0.00883678 0)
(2.96008 0.0215867 0)
(2.89753 0.0553991 0)
(2.72377 0.148635 0)
(2.24565 0.423898 0)
(1.70337 0.840468 0)
(1.51917 0.9286 0)
(1.49282 0.945461 0)
(1.50442 0.942045 0)
(3 8.23285e-10 0)
(3 5.06805e-09 0)
(3 1.76029e-08 0)
(3 4.91446e-08 0)
(3 1.28938e-07 0)
(3 3.19778e-07 0)
(3 7.99179e-07 0)
(3 1.91862e-06 0)
(2.99999 4.77799e-06 0)
(2.99998 1.13193e-05 0)
(2.99995 2.82356e-05 0)
(2.99988 6.66867e-05 0)
(2.99971 0.000166348 0)
(2.99931 0.000393784 0)
(2.99833 0.000978518 0)
(2.99596 0.00233781 0)
(2.99014 0.00578593 0)
(2.97585 0.0140954 0)
(2.93936 0.0355563 0)
(2.84258 0.0928605 0)
(2.56447 0.262259 0)
(1.97902 0.67141 0)
(1.61958 0.897354 0)
(1.54063 0.940008 0)
(1.53261 0.949466 0)
(3 5.12223e-10 0)
(3 3.31732e-09 0)
(3 1.11962e-08 0)
(3 3.2137e-08 0)
(3 8.20206e-08 0)
(3 2.09352e-07 0)
(3 5.04358e-07 0)
(3 1.25723e-06 0)
(2.99999 2.99271e-06 0)
(2.99999 7.41202e-06 0)
(2.99997 1.7628e-05 0)
(2.99993 4.33742e-05 0)
(2.99982 0.000103837 0)
(2.99956 0.000253435 0)
(2.99895 0.000611168 0)
(2.99744 0.00148364 0)
(2.9938 0.0036094 0)
(2.98481 0.008776 0)
(2.96237 0.0217022 0)
(2.90385 0.0549462 0)
(2.74224 0.147327 0)
(2.29995 0.416126 0)
(1.78153 0.829301 0)
(1.59446 0.931379 0)
(1.56378 0.951559 0)
(3 3.25174e-10 0)
(3 2.15772e-09 0)
(3 7.15336e-09 0)
(3 2.08582e-08 0)
(3 5.25203e-08 0)
(3 1.35553e-07 0)
(3 3.23075e-07 0)
(3 8.13413e-07 0)
(3 1.91715e-06 0)
(2.99999 4.77969e-06 0)
(2.99998 1.13111e-05 0)
(2.99995 2.79461e-05 0)
(2.99989 6.66795e-05 0)
(2.99974 0.00016295 0)
(2.99935 0.000393687 0)
(2.99846 0.000952109 0)
(2.99621 0.00232615 0)
(2.9909 0.00561588 0)
(2.9776 0.0138756 0)
(2.94419 0.0344723 0)
(2.85583 0.0899364 0)
(2.60349 0.251229 0)
(2.05901 0.645956 0)
(1.69839 0.89687 0)
(1.61077 0.946839 0)
(3 2.15338e-10 0)
(3 1.31833e-09 0)
(3 4.63764e-09 0)
(3 1.27478e-08 0)
(3 3.38849e-08 0)
(3 8.30383e-08 0)
(3 2.0754e-07 0)
(3 4.99394e-07 0)
(3 1.22152e-06 0)
(3 2.94804e-06 0)
(2.99999 7.11764e-06 0)
(2.99997 1.7343e-05 0)
(2.99993 4.14049e-05 0)
(2.99984 0.000101667 0)
(2.9996 0.000241093 0)
(2.99905 0.000595496 0)
(2.99769 0.00140806 0)
(2.99442 0.00348848 0)
(2.98635 0.00833037 0)
(2.96643 0.0207368 0)
(2.91484 0.0519413 0)
(2.77407 0.138363 0)
(2.38641 0.389075 0)
(1.88052 0.801225 0)
(1.66962 0.929593 0)
(3 1.34436e-10 0)
(3 8.27256e-10 0)
(3 2.88633e-09 0)
(3 8.00802e-09 0)
(3 2.10931e-08 0)
(3 5.20105e-08 0)
(3 1.2971e-07 0)
(3 3.11013e-07 0)
(3 7.66615e-07 0)
(3 1.82813e-06 0)
(2.99999 4.48395e-06 0)
(2.99998 1.07125e-05 0)
(2.99996 2.61606e-05 0)
(2.9999 6.27648e-05 0)
(2.99976 0.000152529 0)
(2.99943 0.00036779 0)
(2.99862 0.000891046 0)
(2.99666 0.00216065 0)
(2.99195 0.00524348 0)
(2.98031 0.0128216 0)
(2.95112 0.0318568 0)
(2.87475 0.0819662 0)
(2.65873 0.226348 0)
(2.16488 0.591233 0)
(1.784 0.88899 0)
(3 7.93184e-11 0)
(3 5.19714e-10 0)
(3 1.73344e-09 0)
(3 5.02049e-09 0)
(3 1.26864e-08 0)
(3 3.25283e-08 0)
(3 7.77874e-08 0)
(3 1.94102e-07 0)
(3 4.59407e-07 0)
(3 1.13386e-06 0)
(3 2.69393e-06 0)
(2.99999 6.58824e-06 0)
(2.99998 1.57601e-05 0)
(2.99994 3.81944e-05 0)
(2.99986 9.22576e-05 0)
(2.99966 0.000221307 0)
(2.99918 0.000539426 0)
(2.99805 0.00128642 0)
(2.99523 0.00315715 0)
(2.98854 0.00756281 0)
(2.97182 0.0186926 0)
(2.92949 0.0466044 0)
(2.81609 0.122724 0)
(2.49942 0.344025 0)
(2.00042 0.750548 0)
(3 5.00624e-11 0)
(3 3.0824e-10 0)
(3 1.07433e-09 0)
(3 2.97601e-09 0)
(3 7.83219e-09 0)
(3 1.92495e-08 0)
(3 4.7908e-08 0)
(3 1.14745e-07 0)
(3 2.81378e-07 0)
(3 6.7151e-07 0)
(3 1.63675e-06 0)
(2.99999 3.91446e-06 0)
(2.99999 9.48183e-06 0)
(2.99997 2.27958e-05 0)
(2.99992 5.4907e-05 0)
(2.9998 0.000132741 0)
(2.99951 0.000317488 0)
(2.99884 0.00077378 0)
(2.99718 0.00184251 0)
(2.99323 0.00451532 0)
(2.98347 0.0108673 0)
(2.95931 0.0268834 0)
(2.89656 0.0681555 0)
(2.72304 0.184241 0)
(2.29347 0.493143 0)
(3 2.97899e-11 0)
(3 1.81302e-10 0)
(3 6.39252e-10 0)
(3 1.74906e-09 0)
(3 4.65127e-09 0)
(3 1.13074e-08 0)
(3 2.83248e-08 0)
(3 6.73681e-08 0)
(3 1.65364e-07 0)
(3 3.94298e-07 0)
(3 9.55263e-07 0)
(3 2.29678e-06 0)
(2.99999 5.502e-06 0)
(2.99998 1.33733e-05 0)
(2.99995 3.16834e-05 0)
(2.99988 7.7676e-05 0)
(2.99971 0.000182872 0)
(2.99932 0.000450779 0)
(2.99835 0.00105873 0)
(2.99606 0.0026162 0)
(2.99041 0.00619829 0)
(2.97677 0.0153412 0)
(2.94222 0.0377641 0)
(2.85182 0.0984148 0)
(2.59965 0.273276 0)
(3 1.68695e-11 0)
(3 1.02521e-10 0)
(3 3.60876e-10 0)
(3 9.8683e-10 0)
(3 2.62019e-09 0)
(3 6.3609e-09 0)
(3 1.58792e-08 0)
(3 3.75437e-08 0)
(3 9.22324e-08 0)
(3 2.17227e-07 0)
(3 5.2818e-07 0)
(3 1.24859e-06 0)
(2.99999 3.00862e-06 0)
(2.99999 7.17018e-06 0)
(2.99997 1.70417e-05 0)
(2.99993 4.10336e-05 0)
(2.99982 9.6465e-05 0)
(2.99957 0.000233729 0)
(2.99898 0.000544977 0)
(2.99751 0.00132553 0)
(2.99406 0.00308992 0)
(2.98548 0.00752303 0)
(2.96445 0.0179004 0)
(2.91038 0.0447823 0)
(2.76506 0.11756 0)
(3 8.663e-12 0)
(3 5.73172e-11 0)
(3 1.89229e-10 0)
(3 5.48895e-10 0)
(3 1.36871e-09 0)
(3 3.48677e-09 0)
(3 8.23144e-09 0)
(3 2.02461e-08 0)
(3 4.73299e-08 0)
(3 1.14298e-07 0)
(3 2.6823e-07 0)
(3 6.38148e-07 0)
(3 1.50731e-06 0)
(2.99999 3.53061e-06 0)
(2.99998 8.40428e-06 0)
(2.99995 1.93884e-05 0)
(2.99987 4.63897e-05 0)
(2.99969 0.000105318 0)
(2.99926 0.000253586 0)
(2.99818 0.000565804 0)
(2.99556 0.00136181 0)
(2.98906 0.0030378 0)
(2.97288 0.00721894 0)
(2.93083 0.016663 0)
(2.81653 0.0404321 0)
(3 4.40272e-12 0)
(3 2.8699e-11 0)
(3 9.58074e-11 0)
(3 2.74006e-10 0)
(3 6.84911e-10 0)
(3 1.72432e-09 0)
(3 4.02927e-09 0)
(3 9.89789e-09 0)
(3 2.24765e-08 0)
(3 5.49856e-08 0)
(3 1.23431e-07 0)
(3 2.9952e-07 0)
(3 6.72636e-07 0)
(2.99999 1.59779e-06 0)
(2.99998 3.64519e-06 0)
(2.99996 8.37292e-06 0)
(2.9999 1.94959e-05 0)
(2.99974 4.30368e-05 0)
(2.99936 0.000102763 0)
(2.99844 0.000217125 0)
(2.99611 0.000529289 0)
(2.99035 0.00108961 0)
(2.97569 0.00263189 0)
(2.93708 0.00562388 0)
(2.8297 0.013117 0)
(3 2.27744e-12 0)
(3 1.29423e-11 0)
(3 4.79115e-11 0)
(3 1.22474e-10 0)
(3 3.38455e-10 0)
(3 7.69158e-10 0)
(3 1.94418e-09 0)
(3 4.36818e-09 0)
(3 1.04844e-08 0)
(3 2.39901e-08 0)
(3 5.5025e-08 0)
(3 1.29198e-07 0)
(3 2.83866e-07 0)
(2.99999 6.8421e-07 0)
(2.99998 1.43915e-06 0)
(2.99996 3.56546e-06 0)
(2.9999 7.17096e-06 0)
(2.99976 1.81782e-05 0)
(2.9994 3.52449e-05 0)
(2.99853 9.14588e-05 0)
(2.99629 0.000172595 0)
(2.99081 0.000446519 0)
(2.97663 0.00088828 0)
(2.9393 0.00213735 0)
(2.83419 0.00477975 0)
(3 1.01712e-12 0)
(3 6.31308e-12 0)
(3 2.17105e-11 0)
(3 5.95652e-11 0)
(3 1.52677e-10 0)
(3 3.72142e-10 0)
(3 8.62612e-10 0)
(3 2.08655e-09 0)
(3 4.59086e-09 0)
(3 1.12629e-08 0)
(3 2.35605e-08 0)
(3 5.9776e-08 0)
(3 1.18647e-07 0)
(2.99999 3.13076e-07 0)
(2.99998 5.90472e-07 0)
(2.99996 1.62082e-06 0)
(2.99991 2.93319e-06 0)
(2.99977 8.1595e-06 0)
(2.99942 1.49454e-05 0)
(2.99855 3.91053e-05 0)
(2.99641 7.72871e-05 0)
(2.99094 0.000186923 0)
(2.97709 0.000391598 0)
(2.94026 0.000920075 0)
(2.83632 0.00206232 0)
(3 3.61142e-13 0)
(3 3.88954e-12 0)
(3 9.07819e-12 0)
(3 3.67313e-11 0)
(3 6.47344e-11 0)
(3 2.24937e-10 0)
(3 3.74604e-10 0)
(3 1.25374e-09 0)
(3 2.09565e-09 0)
(3 6.60997e-09 0)
(3 1.19221e-08 0)
(3 3.35492e-08 0)
(3 6.86594e-08 0)
(2.99999 1.62645e-07 0)
(2.99999 4.10672e-07 0)
(2.99996 7.20026e-07 0)
(2.99991 2.44368e-06 0)
(2.99977 3.10129e-06 0)
(2.99943 1.38326e-05 0)
(2.99859 1.23504e-05 0)
(2.99641 7.63106e-05 0)
(2.99107 6.38013e-05 0)
(2.97724 0.000348481 0)
(2.94064 0.000503392 0)
(2.83726 0.00156279 0)
(3 3.41307e-13 0)
(3 1.91061e-12 0)
(3 7.13511e-12 0)
(3 1.81792e-11 0)
(3 5.23295e-11 0)
(3 1.14857e-10 0)
(3 3.29002e-10 0)
(3 6.45808e-10 0)
(3 1.98963e-09 0)
(3 3.55506e-09 0)
(3 1.16692e-08 0)
(3 1.95681e-08 0)
(3 6.8141e-08 0)
(2.99999 1.05525e-07 0)
(2.99999 3.82338e-07 0)
(2.99996 5.92012e-07 0)
(2.99991 2.07104e-06 0)
(2.99978 3.35457e-06 0)
(2.99943 1.07845e-05 0)
(2.9986 2.04862e-05 0)
(2.99645 5.47764e-05 0)
(2.99117 0.000122185 0)
(2.97746 0.000301402 0)
(2.94123 0.000702114 0)
(2.83875 0.00176982 0)
(3 2.21137e-13 0)
(3 1.53092e-12 0)
(3 5.01095e-12 0)
(3 1.52229e-11 0)
(3 3.74604e-11 0)
(3 1.05068e-10 0)
(3 2.33477e-10 0)
(3 6.61488e-10 0)
(3 1.39429e-09 0)
(3 4.0419e-09 0)
(3 8.18706e-09 0)
(3 2.38903e-08 0)
(3 4.83041e-08 0)
(2.99999 1.38571e-07 0)
(2.99999 2.73881e-07 0)
(2.99996 8.03269e-07 0)
(2.99991 1.60304e-06 0)
(2.99978 4.37334e-06 0)
(2.99944 9.68175e-06 0)
(2.99862 2.39423e-05 0)
(2.9965 5.62988e-05 0)
(2.99127 0.000128849 0)
(2.97771 0.000311835 0)
(2.94186 0.00073072 0)
(2.84039 0.00181397 0)
(3 1.79108e-13 0)
(3 1.32784e-12 0)
(3 4.02482e-12 0)
(3 1.29841e-11 0)
(3 2.96624e-11 0)
(3 8.85513e-11 0)
(3 1.80015e-10 0)
(3 5.7639e-10 0)
(3 1.04926e-09 0)
(3 3.67308e-09 0)
(3 6.16765e-09 0)
(3 2.29388e-08 0)
(3 3.55336e-08 0)
(2.99999 1.41797e-07 0)
(2.99999 2.15107e-07 0)
(2.99997 8.35403e-07 0)
(2.99991 1.31217e-06 0)
(2.99978 4.73851e-06 0)
(2.99945 7.98029e-06 0)
(2.99864 2.47599e-05 0)
(2.99654 4.82587e-05 0)
(2.99138 0.0001281 0)
(2.97796 0.000272023 0)
(2.94245 0.000688745 0)
(2.84199 0.00161978 0)
(3 2.31005e-13 0)
(3 4.33752e-13 0)
(3 4.62786e-12 0)
(3 4.64829e-12 0)
(3 3.26208e-11 0)
(3 4.1856e-11 0)
(3 1.89877e-10 0)
(3 3.21476e-10 0)
(3 1.04514e-09 0)
(3 2.45562e-09 0)
(3 5.46113e-09 0)
(3 1.765e-08 0)
(3 2.79386e-08 0)
(2.99999 1.21791e-07 0)
(2.99999 1.41564e-07 0)
(2.99997 7.93713e-07 0)
(2.99991 6.75951e-07 0)
(2.99979 4.96284e-06 0)
(2.99946 3.02513e-06 0)
(2.99866 2.86025e-05 0)
(2.99658 1.58112e-05 0)
(2.99146 0.000146662 0)
(2.97818 0.000139825 0)
(2.94294 0.000632703 0)
(2.84327 0.00115703 0)
(3 2.18307e-13 0)
(3 -2.47302e-14 0)
(3 3.89137e-12 0)
(3 -2.76712e-13 0)
(3 2.83104e-11 0)
(3 6.87064e-12 0)
(3 1.74807e-10 0)
(3 9.65439e-11 0)
(3 9.89377e-10 0)
(3 1.02746e-09 0)
(3 5.27263e-09 0)
(3 8.57787e-09 0)
(3 2.73438e-08 0)
(2.99999 6.89168e-08 0)
(2.99999 1.14409e-07 0)
(2.99997 5.13594e-07 0)
(2.99992 4.17732e-07 0)
(2.99979 3.51215e-06 0)
(2.99947 9.38177e-07 0)
(2.99865 2.27065e-05 0)
(2.99664 -1.9068e-08 0)
(2.99148 0.000116997 0)
(2.97836 5.04037e-05 0)
(2.94327 0.000447189 0)
(2.84412 0.000660929 0)
(3 8.69778e-14 0)
(3 6.19436e-14 0)
(3 1.33156e-12 0)
(3 3.5061e-13 0)
(3 1.04107e-11 0)
(3 1.27678e-12 0)
(3 7.23523e-11 0)
(3 4.75173e-12 0)
(3 4.68744e-10 0)
(3 3.58472e-11 0)
(3 2.908e-09 0)
(3 4.1649e-10 0)
(3 1.68908e-08 0)
(2.99999 8.15845e-09 0)
(2.99999 8.16715e-08 0)
(2.99997 9.54145e-08 0)
(2.99992 3.49077e-07 0)
(2.99979 8.86703e-07 0)
(2.99947 1.20471e-06 0)
(2.99865 6.48913e-06 0)
(2.99666 3.59785e-06 0)
(2.9915 3.52011e-05 0)
(2.97845 2.53457e-05 0)
(2.94345 0.000142403 0)
(2.84451 0.000228453 0)
(1.16525 1.01949 0)
(1.1482 0.724188 0)
(0.470805 0.494716 0)
(-0.469466 0.114633 0)
(-0.408509 -0.014713 0)
(-0.631037 -0.0181492 0)
(-0.701804 -0.021162 0)
(-0.743416 -0.00123853 0)
(-0.793296 0.0177989 0)
(-0.857284 0.0208245 0)
(-0.918219 0.0169488 0)
(-0.971256 0.0111424 0)
(-1.02158 0.00800707 0)
(-1.07317 0.00705777 0)
(-1.12439 0.00651085 0)
(-1.17164 0.00561973 0)
(-1.21328 0.00390235 0)
(-1.252 0.00186034 0)
(-1.29014 0.00170575 0)
(-1.31826 0.0037526 0)
(-1.33098 0.00361856 0)
(-1.33499 0.0020861 0)
(-1.32837 0.00011261 0)
(-1.30219 -0.00289595 0)
(-1.2539 -0.00697969 0)
(-1.18758 -0.0117685 0)
(-1.10977 -0.0159571 0)
(-1.02683 -0.0189298 0)
(-0.942826 -0.0207805 0)
(-0.860062 -0.0217753 0)
(-0.77959 -0.0222741 0)
(-0.702125 -0.0223563 0)
(-0.628579 -0.0221521 0)
(-0.559057 -0.0216682 0)
(-0.49291 -0.0213899 0)
(-0.42962 -0.0215775 0)
(-0.368609 -0.0223093 0)
(-0.307988 -0.0239344 0)
(-0.249902 -0.0249347 0)
(-0.193874 -0.025253 0)
(-0.139996 -0.0254667 0)
(-0.0875649 -0.0260542 0)
(-0.0375672 -0.0273784 0)
(0.0153928 -0.0294178 0)
(0.0673855 -0.0265128 0)
(0.112348 -0.0240948 0)
(0.157091 -0.023047 0)
(0.199386 -0.0219878 0)
(0.239132 -0.0209443 0)
(0.276594 -0.0200138 0)
(0.314254 -0.0196083 0)
(0.352311 -0.0195017 0)
(0.389315 -0.0189174 0)
(0.424935 -0.0181617 0)
(0.459273 -0.017428 0)
(0.492562 -0.0167203 0)
(0.52498 -0.0160739 0)
(0.556565 -0.01545 0)
(0.587374 -0.0148589 0)
(0.61744 -0.0142799 0)
(0.646827 -0.013727 0)
(0.675569 -0.0131931 0)
(0.70371 -0.0126829 0)
(0.731275 -0.0121916 0)
(0.758299 -0.0117197 0)
(0.78481 -0.0112657 0)
(0.810835 -0.010829 0)
(0.836399 -0.0104101 0)
(0.861521 -0.0100065 0)
(0.886224 -0.00961913 0)
(0.910523 -0.00924489 0)
(0.934436 -0.00888489 0)
(0.957977 -0.00853499 0)
(0.981161 -0.00819656 0)
(1.004 -0.00786511 0)
(1.0265 -0.00754186 0)
(1.04867 -0.00722308 0)
(1.07051 -0.00690969 0)
(1.09204 -0.00659926 0)
(1.11324 -0.00629203 0)
(1.13413 -0.00598744 0)
(1.15471 -0.00568461 0)
(1.17496 -0.00538513 0)
(1.19491 -0.00508643 0)
(1.21453 -0.00479188 0)
(1.23384 -0.00449754 0)
(1.25284 -0.00420718 0)
(1.27151 -0.00391594 0)
(1.28985 -0.00362633 0)
(1.30784 -0.00333251 0)
(1.32546 -0.00303524 0)
(1.34266 -0.00272839 0)
(1.35938 -0.00240652 0)
(1.3755 -0.00206447 0)
(1.39089 -0.00168759 0)
(1.4053 -0.00125491 0)
(1.41836 -0.000777243 0)
(1.42961 -0.000220326 0)
(1.43807 0.000465749 0)
(1.44427 0.00127572 0)
(1.21795 0.927189 0)
(1.25115 0.625225 0)
(0.964834 0.476892 0)
(0.575755 0.388335 0)
(0.484223 0.29485 0)
(0.272085 0.208139 0)
(0.0711237 0.119864 0)