/*--------------------------------*- C++ -*----------------------------------*\
  =========                 |
  \\      /  F ield         | OpenFOAM: The Open Source CFD Toolbox
   \\    /   O peration     | Website:  https://openfoam.org
    \\  /    A nd           | Version:  13
     \\/     M anipulation  |
\*---------------------------------------------------------------------------*/
FoamFile
{
    format      ascii;
    class       volScalarField;
    location    "4.5";
    object      p;
}
// * * * * * * * * * * * * * * * * * * * * * * * * * * * * * * * * * * * * * //

dimensions      [1 -1 -2 0 0 0 0];

internalField   nonuniform List<scalar> 
5250
(
1.00001
1.00003
1.00008
1.0002
1.00055
1.00125
1.00337
1.00764
1.0204
1.04757
1.12367
1.31225
1.84992
3.41398
7.99176
11.6931
11.287
11.0412
11.1248
11.3543
11.5822
11.7215
11.8264
11.909
11.9717
1.00001
1.00003
1.00008
1.00021
1.00051
1.0013
1.00319
1.00776
1.0196
1.04752
1.1207
1.30785
1.83437
3.3697
7.87667
11.7067
11.2867
11.0314
11.1159
11.3463
11.5742
11.7138
11.8203
11.9043
11.9684
1.00001
1.00003
1.00008
1.00019
1.00052
1.00119
1.00321
1.00727
1.01939
1.0452
1.11741
1.2958
1.80282
3.27483
7.61908
11.734
11.2825
11.0014
11.0845
11.3127
11.5386
11.6764
11.7824
11.866
11.9305
1
1.00003
1.00007
1.00019
1.00049
1.00115
1.003
1.00694
1.01828
1.04292
1.11103
1.27926
1.75541
3.1325
7.22203
11.7739
11.2771
10.952
11.0305
11.2522
11.4752
11.6093
11.7124
11.7942
11.86
1
1.00002
1.00007
1.00018
1.00045
1.00108
1.00277
1.00651
1.0169
1.04002
1.10285
1.25841
1.69479
2.95177
6.7002
11.8101
11.2704
10.8862
10.9567
11.1668
11.3861
11.5149
11.6128
11.6917
11.7602
1
1.00002
1.00006
1.00016
1.0004
1.00102
1.00243
1.00627
1.0147
1.03798
1.09158
1.23703
1.62306
2.74715
6.07618
11.793
11.2509
10.8047
10.863
11.0541
11.2665
11.3861
11.4747
11.5468
11.6171
1
1.00002
1.00006
1.00015
1.00038
1.0009
1.00232
1.00539
1.01406
1.03302
1.08493
1.21089
1.55981
2.54877
5.48351
11.6341
11.1753
10.7016
10.7469
10.9105
11.1094
11.2139
11.2854
11.3418
11.4087
1
1.00002
1.00005
1.00014
1.00033
1.00086
1.00199
1.00515
1.01229
1.03087
1.07605
1.19268
1.50435
2.39463
5.03791
11.1882
10.9806
10.5863
10.6116
10.7319
10.9065
10.9873
11.0293
11.0508
11.0939
1
1.00002
1.00005
1.00012
1.00032
1.00073
1.00192
1.00445
1.01153
1.02739
1.06962
1.17319
1.45419
2.24903
4.59786
10.4839
10.6973
10.5124
10.4661
10.527
10.655
10.697
10.6873
10.6358
10.5859
1
1.00001
1.00004
1.00011
1.00028
1.00065
1.00171
1.004
1.01025
1.02469
1.06202
1.15494
1.40299
2.10288
4.15602
9.60515
10.5384
10.4127
10.2863
10.3077
10.3609
10.3442
10.2544
10.0338
9.69388
1
1.00001
1.00004
1.0001
1.00024
1.0006
1.00143
1.0037
1.00863
1.02247
1.05332
1.13724
1.34948
1.95432
3.7084
8.56755
10.4275
10.3142
10.0993
10.0675
10.0431
9.94931
9.69151
9.09008
7.53169
1
1.00001
1.00003
1.00008
1.00021
1.00051
1.00124
1.00315
1.00743
1.01919
1.04568
1.11702
1.29603
1.79994
3.24961
7.3726
10.3449
10.2164
9.93173
9.81982
9.73096
9.53634
9.12061
8.28854
6.64039
1
1.00001
1.00003
1.00007
1.00018
1.00041
1.00109
1.00247
1.00659
1.01501
1.03951
1.09408
1.2449
1.64213
2.79007
6.07049
10.2356
10.1098
9.79002
9.57861
9.42294
9.14536
8.62747
7.76587
6.42225
1
1.00001
1.00002
1.00006
1.00013
1.00036
1.00081
1.00217
1.0049
1.01303
1.02999
1.07782
1.19036
1.50165
2.36005
4.79396
9.91932
9.90613
9.67777
9.35748
9.12855
8.80331
8.2679
7.46906
6.39366
1
1.00001
1.00002
1.00005
1.00011
1.00029
1.00067
1.00176
1.00401
1.0106
1.02442
1.06353
1.15412
1.40468
2.09013
4.07005
9.0233
9.6315
9.47899
9.15325
8.86612
8.51739
8.00394
7.2887
6.39173
1
1
1.00001
1.00004
1.00009
1.00023
1.00054
1.00142
1.00323
1.00856
1.01964
1.05136
1.1234
1.3227
1.8588
3.40653
7.54857
9.35574
9.26248
8.99702
8.64853
8.28147
7.7984
7.16011
6.38765
1
1
1.00001
1.00003
1.00007
1.00018
1.00042
1.00111
1.00258
1.00657
1.01581
1.03936
1.09732
1.24743
1.6533
2.80099
5.99068
9.16601
9.11863
8.89291
8.48112
8.08944
7.63179
7.05775
6.38024
1
1
1.00001
1.00002
1.00005
1.00014
1.00032
1.00085
1.00193
1.00503
1.0117
1.0297
1.07179
1.18149
1.46615
2.24966
4.37979
8.75073
8.98003
8.79592
8.38183
7.94219
7.49572
6.97365
6.37137
1
1
1.00001
1.00002
1.00004
1.00011
1.00024
1.00065
1.00145
1.00387
1.00876
1.02302
1.05392
1.13841
1.349
1.93715
3.57546
7.68456
8.72744
8.60749
8.28389
7.82193
7.38203
6.90195
6.36125
1
1
1
1.00001
1.00003
1.00008
1.00019
1.00048
1.0011
1.00289
1.00655
1.01736
1.0401
1.10379
1.25702
1.68448
2.86546
6.04311
8.45483
8.41269
8.19631
7.74546
7.29366
6.84084
6.35035
1
1
1
1.00001
1.00002
1.00005
1.00014
1.00033
1.00083
1.00202
1.00485
1.01218
1.02892
1.07302
1.17912
1.46426
2.22533
4.24635
7.99972
8.27541
8.11593
7.72606
7.23949
6.79493
6.34188
1
1
1
1.00001
1.00002
1.00004
1.0001
1.00025
1.00057
1.00151
1.0034
1.00897
1.0205
1.0531
1.12709
1.32894
1.86103
3.32682
6.91108
8.04979
7.9593
7.68516
7.21425
6.76689
6.33831
1
1
1
1
1.00001
1.00003
1.00007
1.00017
1.00044
1.00099
1.00262
1.0059
1.01556
1.03592
1.09236
1.2269
1.59623
2.59413
5.2242
7.71839
7.7481
7.60005
7.22854
6.76798
6.341
1
1
1
1
1.00001
1.00002
1.00005
1.00012
1.0003
1.00068
1.00179
1.00403
1.01061
1.02416
1.06252
1.14932
1.38588
1.99844
3.59799
7.01769
7.61645
7.51401
7.22757
6.78261
6.35234
1
1
1
1
1.00001
1.00001
1.00003
1.00008
1.0002
1.00047
1.00122
1.00278
1.00726
1.01653
1.04293
1.10135
1.261
1.66967
2.78191
5.57072
7.36482
7.35219
7.20381
6.83853
6.3816
1
1
1
1
1
1.00001
1.00002
1.00006
1.00013
1.00033
1.00076
1.00196
1.00453
1.01139
1.02723
1.06707
1.16533
1.41901
2.08135
3.74327
6.83377
7.24877
7.15004
6.88497
6.4403
1
1
1
1
1
1.00001
1.00002
1.00004
1.00009
1.00022
1.00051
1.00131
1.00297
1.00774
1.01759
1.04554
1.10731
1.27556
1.7031
2.84553
5.62231
7.02657
7.0162
6.8747
6.54148
1
1
1
1
1
1
1.00001
1.00002
1.00006
1.00013
1.00035
1.0008
1.00205
1.00473
1.01189
1.02836
1.06985
1.17203
1.43572
2.12097
3.82965
6.52398
6.90484
6.82368
6.59381
1
1
1
1
1
1
1.00001
1.00002
1.00004
1.00009
1.00021
1.00054
1.00124
1.00322
1.00725
1.01892
1.04337
1.11074
1.27013
1.69834
2.78946
5.38773
6.67454
6.68753
6.57808
1
1
1
1
1
1
1
1.00001
1.00002
1.00005
1.00014
1.00032
1.00084
1.00188
1.00485
1.01116
1.02804
1.06682
1.16619
1.41558
2.05616
3.62379
6.15123
6.57694
6.52284
1
1
1
1
1
1
1
1.00001
1.00002
1.00003
1.00009
1.0002
1.00051
1.00121
1.00293
1.00718
1.01696
1.04233
1.10108
1.25456
1.64032
2.63431
4.98215
6.33198
6.40507
1
1
1
1
1
1
1
1
1.00001
1.00002
1.00005
1.00013
1.00029
1.00076
1.00172
1.00439
1.01012
1.02516
1.05992
1.1475
1.36482
1.91016
3.20297
5.76662
6.29139
1
1
1
1
1
1
1
1
1.00001
1.00001
1.00003
1.00008
1.00018
1.00046
1.00106
1.0027
1.00609
1.01576
1.03588
1.09161
1.21918
1.56084
2.40984
4.48093
5.99118
1
1
1
1
1
1
1
1
1
1.00001
1.00002
1.00005
1.00011
1.00027
1.00064
1.00155
1.00378
1.00886
1.02203
1.05171
1.12833
1.31366
1.78332
2.90519
5.279
1
1
1
1
1
1
1
1
1
1
1.00001
1.00003
1.00006
1.00016
1.00038
1.00093
1.00223
1.00528
1.01309
1.03054
1.07622
1.18265
1.46042
2.14308
3.78797
1
1
1
1
1
1
1
1
1
1
1.00001
1.00002
1.00004
1.00009
1.00023
1.00053
1.00133
1.00301
1.0077
1.01738
1.04433
1.10308
1.25914
1.63627
2.56213
1
1
1
1
1
1
1
1
1
1
1
1.00001
1.00002
1.00005
1.00013
1.0003
1.00076
1.0017
1.00436
1.00974
1.02499
1.05676
1.14283
1.34182
1.83912
1
1
1
1
1
1
1
1
1
1
1
1.00001
1.00001
1.00003
1.00007
1.00018
1.00041
1.00103
1.0024
1.00577
1.01401
1.03296
1.08122
1.19472
1.4853
1
1
1
1
1
1
1
1
1
1
1
1
1.00001
1.00002
1.00004
1.0001
1.00023
1.00059
1.00131
1.00333
1.00752
1.01889
1.04382
1.10784
1.26022
1
1
1
1
1
1
1
1
1
1
1
1
1
1.00001
1.00002
1.00006
1.00013
1.00032
1.00075
1.00176
1.0043
1.0099
1.02464
1.05672
1.14042
1
1
1
1
1
1
1
1
1
1
1
1
1
1.00001
1.00001
1.00003
1.00007
1.00018
1.00041
1.001
1.00237
1.00556
1.01365
1.03155
1.07812
1
1
1
1
1
1
1
1
1
1
1
1
1
1
1.00001
1.00002
1.00004
1.0001
1.00022
1.00056
1.00125
1.0032
1.00714
1.01805
1.04119
1
1
1
1
1
1
1
1
1
1
1
1
1
1
1
1.00001
1.00002
1.00005
1.00013
1.0003
1.00075
1.00172
1.00416
1.00993
1.0233
1
1
1
1
1
1
1
1
1
1
1
1
1
1
1
1.00001
1.00001
1.00003
1.00008
1.00019
1.00047
1.0011
1.00266
1.00643
1.01505
1
1
1
1
1
1
1
1
1
1
1
1
1
1
1
1
1.00001
1.00003
1.00006
1.00015
1.00034
1.00089
1.00203
1.00521
1.01216
1
1
1
1
1
1
1
1
1
1
1
1
1
1
1
1
1.00001
1.00002
1.00005
1.00013
1.0003
1.0008
1.00179
1.00478
1.01088
1
1
1
1
1
1
1
1
1
1
1
1
1
1
1
1
1.00001
1.00002
1.00005
1.00012
1.00029
1.00074
1.00178
1.0044
1.01096
1
1
1
1
1
1
1
1
1
1
1
1
1
1
1
1
1.00001
1.00002
1.00005
1.00012
1.00028
1.00075
1.00169
1.00454
1.01038
1
1
1
1
1
1
1
1
1
1
1
1
1
1
1
1
1.00001
1.00002
1.00005
1.00012
1.00029
1.00072
1.00171
1.00445
1.0104
1
1
1
1
1
1
1
1
1
1
1
1
1
1
1
1
1.00001
1.00002
1.00005
1.00011
1.0003
1.00068
1.00182
1.00416
1.01104
3.02716
1.53359
1.03899
0.950084
0.980954
1.07702
1.2797
1.48681
1.6354
1.87126
2.3684
3.05803
3.27934
3.36539
3.37541
3.33032
3.26806
3.21643
3.18648
3.15988
3.12997
3.09312
3.05459
3.01656
2.97676
2.94905
2.93708
2.93405
2.94503
2.98809
3.06915
3.18489
3.32432
3.47645
3.62696
3.76729
3.89425
4.00658
4.10685
4.19319
4.26498
4.32461
4.37395
4.41705
4.44881
4.46939
4.4816
4.48699
4.48606
4.48105
4.46899
4.45023
4.42746
4.40191
4.3728
4.34098
4.30618
4.26932
4.23016
4.18954
4.14719
4.10385
4.05927
4.01404
3.96792
3.92138
3.87418
3.8267
3.77874
3.73059
3.68212
3.63357
3.58485
3.53618
3.48751
3.43903
3.39073
3.34276
3.29516
3.24804
3.20145
3.15547
3.11016
3.06555
3.02174
2.97871
2.93656
2.89528
2.85498
2.81566
2.77749
2.74047
2.70485
2.67074
2.6385
2.6085
2.58147
2.55849
2.54074
2.53356
3.73108
2.3394
1.74665
1.49904
1.38676
1.32445
1.33328
1.37727
1.49206
1.74502
2.26978
3.0131
3.30525
3.37085
3.35996
3.31769
3.25456
3.21568
3.20058
3.17135
3.13679
3.09357
3.04821
3.00816
2.97325
2.94593
2.9328
2.92926
2.93919
2.97763
3.05502
3.16919
3.30652
3.4588
3.60928
3.74861
3.87503
3.98597
4.09008
4.17829
4.25062
4.31158
4.36207
4.40537
4.43754
4.45934
4.47229
4.47813
4.4776
4.47379
4.46335
4.44361
4.42066
4.39539
4.36686
4.33545
4.30109
4.26452
4.22575
4.18537
4.14336
4.10021
4.0559
4.0108
3.96489
3.91843
3.87139
3.82398
3.77616
3.72808
3.67974
3.63127
3.58268
3.53408
3.48553
3.43711
3.38892
3.34102
3.29351
3.24646
3.19997
3.15406
3.10886
3.06434
3.02063
2.97769
2.93565
2.89449
2.85432
2.81515
2.77714
2.7403
2.70488
2.67098
2.63898
2.6092
2.58236
2.55955
2.54165
2.53548
4.5599
3.26348
2.44698
1.93163
1.60193
1.40107
1.32732
1.34209
1.40771
1.57919
1.96319
2.76262
3.2382
3.3436
3.33498
3.30715
3.25702
3.21691
3.18868
3.1582
3.12437
3.08503
3.04568
3.00993
2.97473
2.94625
2.92542
2.91673
2.92098
2.95694
3.03264
3.14485
3.27787
3.43154
3.58493
3.7266
3.85514
3.96934
4.0725
4.1607
4.2344
4.29628
4.34771
4.39027
4.42285
4.44563
4.45948
4.46584
4.46553
4.46271
4.45419
4.436
4.41182
4.38613
4.35809
4.32726
4.29352
4.25739
4.21911
4.1791
4.13752
4.09468
4.0507
4.00583
3.96015
3.91386
3.867
3.81972
3.77206
3.72412
3.67595
3.62761
3.57918
3.53072
3.48232
3.43403
3.38599
3.33821
3.29086
3.24395
3.19762
3.15187
3.10685
3.06252
3.01899
2.97628
2.93448
2.89356
2.85362
2.81474
2.77707
2.74061
2.70561
2.67215
2.64065
2.6114
2.58515
2.563
2.54543
2.54082
5.01775
3.84172
2.97246
2.36709
1.96353
1.69471
1.5312
1.47659
1.49091
1.55934
1.75365
2.20009
3.02022
3.28859
3.32112
3.30714
3.27161
3.22496
3.19037
3.15792
3.12176
3.08303
3.04424
3.00584
2.97048
2.94305
2.92489
2.91732
2.9245
2.95754
3.0286
3.13598
3.26656
3.40976
3.55856
3.69868
3.82604
3.94019
4.04227
4.13131
4.20681
4.27026
4.32294
4.36605
4.39948
4.42346
4.43851
4.44584
4.44582
4.44401
4.43765
4.42288
4.39803
4.37175
4.34402
4.31394
4.28109
4.24574
4.20817
4.16877
4.12776
4.08542
4.04191
3.99743
3.95213
3.90613
3.85958
3.81255
3.76516
3.71746
3.66954
3.62143
3.57325
3.525
3.47683
3.42875
3.38092
3.33336
3.28625
3.23957
3.19351
3.14804
3.10333
3.05932
3.01604
2.97369
2.93231
2.89181
2.85244
2.81407
2.77699
2.74119
2.70693
2.67431
2.64375
2.6156
2.59053
2.56977
2.55334
2.5512
5.29364
4.26158
3.42378
2.79155
2.32986
1.997
1.76054
1.6001
1.54944
1.56885
1.65686
1.90766
2.4852
3.12532
3.29548
3.30314
3.2881
3.24938
3.20338
3.16494
3.12722
3.08872
3.05054
3.01436
2.98337
2.96094
2.94874
2.94976
2.9614
2.99747
3.06935
3.16081
3.27201
3.39907
3.52884
3.66065
3.78556
3.90024
4.00328
4.09378
4.17123
4.23659
4.29087
4.33514
4.36974
4.39507
4.41156
4.42014
4.42111
4.41987
4.41524
4.40394
4.3811
4.35461
4.3268
4.29724
4.26529
4.2309
4.19423
4.15563
4.11534
4.07363
4.03069
3.98671
3.94186
3.89627
3.8501
3.80343
3.75638
3.709
3.6614
3.6136
3.56572
3.51777
3.46989
3.4221
3.37457
3.32732
3.28055
3.2342
3.18854
3.14347
3.09918
3.05563
3.01308
2.97121
2.93034
2.89044
2.8517
2.81411
2.77789
2.74306
2.70993
2.67861
2.64955
2.6231
2.6
2.58141
2.56783
2.5683
5.4801
4.58298
3.80547
3.17561
2.68495
2.30903
2.02594
1.82015
1.6766
1.65481
1.68294
1.79269
2.08275
2.70709
3.18403
3.29258
3.28983
3.2731
3.23436
3.18415
3.14107
3.10281
3.06711
3.03648
3.01423
3.00318
3.00492
3.01674
3.04993
3.11155
3.1729
3.23751
3.31435
3.40347
3.50218
3.6084
3.7243
3.84152
3.94983
4.04479
4.12564
4.19349
4.24966
4.29547
4.3316
4.35864
4.37697
4.38733
4.38994
4.38912
4.38583
4.3774
4.35956
4.33362
4.30576
4.27652
4.24539
4.21203
4.17644
4.13881
4.09941
4.05847
4.01624
3.97288
3.9286
3.88354
3.83786
3.79163
3.74502
3.69805
3.65086
3.60343
3.55592
3.50832
3.4608
3.41337
3.36623
3.31937
3.27305
3.22712
3.18201
3.13756
3.09393
3.05101
3.00904
2.96788
2.92777
2.88871
2.85095
2.81448
2.77952
2.74611
2.71466
2.6853
2.65855
2.63472
2.6148
2.59922
2.59171
2.59286
5.60874
4.82913
4.11766
3.51059
3.01195
2.61187
2.29557
2.04923
1.86713
1.74024
1.7428
1.78023
1.90656
2.2172
2.85554
3.21372
3.28177
3.27661
3.25783
3.21728
3.16767
3.12494
3.09161
3.07044
3.06329
3.06677
3.08297
3.12635
3.21516
3.29308
3.33821
3.36934
3.40134
3.43686
3.49181
3.55087
3.63601
3.75261
3.8713
3.97733
4.0668
4.1403
4.19987
4.24785
4.28579
4.31476
4.33528
4.34794
4.35299
4.35263
4.3506
4.34488
4.33217
4.30884
4.28172
4.25283
4.22234
4.18994
4.15547
4.11895
4.08059
4.04057
3.99916
3.95655
3.91296
3.86852
3.82343
3.77776
3.73168
3.6852
3.63848
3.59151
3.54443
3.49726
3.45017
3.40318
3.35654
3.31017
3.26445
3.21941
3.175
3.13125
3.08834
3.04617
3.00498
2.96471
2.92563
2.88773
2.85134
2.81631
2.78308
2.75172
2.72264
2.69604
2.6725
2.65237
2.63679
2.62592
2.62456
2.62632
5.70162
5.01635
4.3698
3.79499
3.30349
2.89361
2.55711
2.2844
2.06905
1.90386
1.81119
1.81768
1.86502
2.00756
2.32759
2.9634
3.22155
3.2675
3.26177
3.24287
3.20239
3.15696
3.12432
3.11703
3.12155
3.1407
3.1919
3.30424
3.45685
3.54091
3.55935
3.55534
3.54024
3.5082
3.50932
3.52543
3.56503
3.64357
3.76122
3.87936
3.98402
4.07015
4.13803
4.19096
4.23201
4.26334
4.28627
4.30154
4.30962
4.31055
4.30956
4.30604
4.2975
4.27974
4.25423
4.22606
4.19622
4.16468
4.13127
4.0959
4.05867
4.01971
3.97927
3.93753
3.89475
3.85105
3.80665
3.76162
3.71614
3.67023
3.62405
3.57758
3.531
3.48431
3.43774
3.39128
3.34526
3.29976
3.25488
3.21059
3.16704
3.12411
3.08205
3.0408
3.00065
2.96155
2.92385
2.88757
2.85289
2.81988
2.78901
2.76043
2.73459
2.71178
2.69255
2.67741
2.66689
2.66358
2.66455
2.66851
5.76985
5.1605
4.57288
4.03422
3.55884
3.14932
2.8032
2.51362
2.2755
2.08447
1.93921
1.8742
1.88529
1.94157
2.09776
2.44354
3.01008
3.21491
3.25223
3.24742
3.23157
3.19853
3.16936
3.17215
3.18802
3.23532
3.34516
3.57045
3.77278
3.83626
3.82842
3.79529
3.71638
3.605
3.53741
3.53027
3.54251
3.57583
3.64366
3.75207
3.86764
3.97064
4.05433
4.11894
4.16767
4.20386
4.23033
4.24866
4.25981
4.26393
4.26352
4.26158
4.25627
4.2446
4.22274
4.19626
4.16735
4.13664
4.10421
4.06994
4.03387
3.99605
3.9567
3.91597
3.87411
3.83126
3.78765
3.74336
3.69857
3.65331
3.60773
3.56184
3.51582
3.4697
3.42375
3.37811
3.33304
3.28846
3.24452
3.20112
3.15849
3.11654
3.07557
3.03553
2.99676
2.95926
2.92345
2.88914
2.85675
2.82652
2.79885
2.77402
2.7525
2.73462
2.7209
2.71172
2.7084
2.70906
2.71172
2.71927
5.82035
5.27357
4.7375
4.23541
3.78059
3.37905
3.03041
2.73195
2.47895
2.26829
2.09886
1.97219
1.93203
1.94828
2.013
2.18466
2.55508
3.03451
3.20518
3.24038
3.23853
3.2311
3.22552
3.23452
3.27051
3.36518
3.57268
3.93476
4.14768
4.16364
4.13884
4.06235
3.9003
3.73007
3.61256
3.55256
3.54719
3.557
3.58468
3.6417
3.73419
3.84106
3.94005
4.02189
4.08513
4.13196
4.16564
4.18887
4.20393
4.21185
4.21306
4.21222
4.20926
4.20199
4.18671
4.16284
4.13539
4.10574
4.0743
4.0411
4.00617
3.96955
3.93138
3.89178
3.85098
3.80911
3.76641
3.72295
3.67894
3.63439
3.58949
3.54422
3.49883
3.45345
3.40848
3.36389
3.31986
3.27627
3.23334
3.19097
3.14945
3.10874
3.06916
3.0307
2.99377
2.95845
2.92491
2.89321
2.86394
2.83737
2.81394
2.794
2.77797
2.76615
2.75873
2.75658
2.75726
2.75969
2.76543
2.77835
5.86127
5.36448
4.87302
4.40495
3.97284
3.58319
3.2379
2.93592
2.67447
2.45078
2.26285
2.11244
2.00313
1.98298
2.00389
2.07652
2.25889
2.63976
3.04869
3.19958
3.23468
3.24866
3.2641
3.29941
3.38164
3.56265
3.93815
4.37747
4.53975
4.52647
4.466
4.32057
4.08154
3.87544
3.72416
3.62567
3.57347
3.56321
3.56978
3.59025
3.63392
3.70803
3.80321
3.89574
3.97572
4.03909
4.08601
4.11887
4.14061
4.15327
4.15872
4.15854
4.15714
4.15301
4.14363
4.12466
4.09973
4.07168
4.04146
4.00938
3.9756
3.94018
3.90326
3.86488
3.82526
3.78449
3.74281
3.70029
3.65716
3.6134
3.56924
3.52466
3.48021
3.43594
3.39214
3.34868
3.30576
3.26329
3.22154
3.18044
3.14033
3.1012
3.06343
3.02709
2.99264
2.95997
2.92932
2.90123
2.87613
2.85441
2.83645
2.82263
2.81326
2.80795
2.80771
2.80861
2.81127
2.81714
2.82535
2.84217
5.89397
5.43884
4.98585
4.54941
4.14027
3.765
3.42648
3.1251
2.85939
2.62743
2.42732
2.25856
2.12546
2.03143
2.02962
2.05363
2.13193
2.31933
2.70364
3.06363
3.20208
3.24985
3.2967
3.37481
3.53497
3.86354
4.45796
4.86854
4.92819
4.8933
4.78158
4.54239
4.26461
4.03701
3.86352
3.73629
3.64882
3.59622
3.57481
3.57774
3.58961
3.6186
3.67632
3.75596
3.84168
3.91958
3.98353
4.03174
4.06519
4.08628
4.09784
4.10105
4.10048
4.09824
4.09256
4.08039
4.05926
4.0336
4.00509
3.9744
3.94191
3.90776
3.87213
3.83504
3.7967
3.75714
3.71662
3.67517
3.63302
3.59013
3.54682
3.50337
3.46018
3.4172
3.37466
3.33244
3.2908
3.24966
3.20936
3.16987
3.13156
3.09452
3.05914
3.02569
2.99426
2.96487
2.93829
2.91502
2.89535
2.87986
2.86856
2.86195
2.85965
2.8602
2.86208
2.86635
2.87336
2.88085
2.88706
2.90021
5.92169
5.50091
5.0817
4.67436
4.2873
3.92745
3.59772
3.29979
3.03296
2.79627
2.58802
2.40741
2.25557
2.13489
2.06435
2.06783
2.09677
2.18243
2.37439
2.7622
3.08918
3.23218
3.33661
3.47849
3.76594
4.35219
5.06277
5.34326
5.3263
5.24464
5.04759
4.72863
4.44186
4.20808
4.02141
3.87337
3.75796
3.67199
3.6137
3.57955
3.57683
3.58025
3.59613
3.63306
3.70218
3.77862
3.85428
3.91948
3.96979
4.00491
4.02649
4.03698
4.03883
4.03793
4.03488
4.02767
4.01279
3.99049
3.96432
3.93549
3.90463
3.87196
3.83776
3.80205
3.76509
3.72685
3.68762
3.64736
3.60631
3.56447
3.52249
3.48048
3.43875
3.39718
3.35604
3.31527
3.27515
3.23569
3.19721
3.15982
3.12388
3.08963
3.05756
3.02758
2.99984
2.97515
2.95404
2.93704
2.92415
2.91621
2.91237
2.91279
2.91444
2.91826
2.92495
2.93213
2.93766
2.94101
2.94293
2.94744
5.95106
5.55778
5.16779
4.78538
4.41891
4.07357
3.75375
3.4605
3.19482
2.9557
2.74236
2.55388
2.3894
2.25313
2.14215
2.09461
2.10205
2.13686
2.23086
2.43331
2.83243
3.15444
3.3672
3.62008
4.12394
5.0523
5.6689
5.74749
5.69938
5.54983
5.23879
4.90276
4.61905
4.38492
4.18962
4.02552
3.88833
3.77587
3.68708
3.62151
3.5798
3.56363
3.56119
3.5674
3.58931
3.63736
3.70733
3.78024
3.8462
3.8991
3.93671
3.95927
3.97042
3.9715
3.97039
3.96674
3.95835
3.94137
3.91839
3.89195
3.86311
3.83226
3.79974
3.76561
3.73016
3.69338
3.65558
3.61663
3.57688
3.53659
3.49629
3.45595
3.41583
3.37589
3.3364
3.29741
3.25918
3.22186
3.18575
3.15114
3.1184
3.08801
3.05989
3.03414
3.01176
2.99343
2.97926
2.97011
2.96489
2.96527
2.96687
2.97025
2.97727
2.98605
2.99246
2.99604
2.9953
2.99275
2.98709
2.97877
5.98758
5.61429
5.24674
4.88583
4.53735
4.20609
3.89579
3.60862
3.34519
3.10577
2.88931
2.69566
2.52328
2.37431
2.24968
2.15318
2.12492
2.1378
2.18178
2.29253
2.52389
2.96309
3.36147
3.81855
4.74156
5.80946
6.16224
6.13322
6.01769
5.75435
5.39068
5.06851
4.79627
4.56334
4.36116
4.18434
4.03018
3.89699
3.78436
3.69211
3.62076
3.57062
3.54602
3.53137
3.53292
3.54409
3.57267
3.63066
3.6973
3.76291
3.81787
3.85817
3.88404
3.89674
3.89884
3.89771
3.89382
3.88483
3.86675
3.84343
3.81699
3.78824
3.7577
3.72542
3.69173
3.65664
3.62043
3.58303
3.54502
3.50666
3.46825
3.42979
3.39153
3.35355
3.31609
3.27933
3.24353
3.20899
3.17609
3.14519
3.11696
3.091
3.06776
3.0482
3.03302
3.02277
3.01662
3.01669
3.01807
3.02163
3.02938
3.03957
3.04813
3.05394
3.05341
3.05107
3.04541
3.03282
3.00999
2.98906
6.03893
5.67289
5.32099
4.97806
4.64443
4.32624
4.02529
3.7447
3.48467
3.24639
3.02852
2.83183
2.65409
2.49728
2.36048
2.25051
2.16831
2.16899
2.18969
2.2524
2.40294
2.71079
3.32125
4.07326
5.57734
6.45163
6.50718
6.4372
6.24113
5.87267
5.52815
5.22999
4.96941
4.73764
4.52987
4.34335
4.17631
4.02766
3.89678
3.7836
3.68844
3.61196
3.555
3.52008
3.49822
3.48827
3.49277
3.50987
3.5479
3.60764
3.66899
3.72512
3.76977
3.80018
3.81648
3.82086
3.81991
3.81622
3.80745
3.78965
3.76652
3.74011
3.71163
3.68136
3.64966
3.61657
3.5822
3.54682
3.51097
3.47479
3.4385
3.40223
3.3662
3.33061
3.29571
3.2618
3.22923
3.19839
3.16983
3.14414
3.12089
3.1006
3.08445
3.0733
3.06652
3.06612
3.06746
3.07124
3.07959
3.09199
3.103
3.1112
3.11287
3.11157
3.10723
3.0968
3.07548
3.04638
3.01531
2.98764
6.10783
5.73381
5.39077
5.06126
4.74251
4.43549
4.14417
3.86998
3.61458
3.37795
3.16058
2.96164
2.78108
2.61884
2.47418
2.35495
2.25353
2.22542
2.2363
2.28272
2.40911
2.68714
3.27029
4.44666
6.30758
6.84624
6.79855
6.64556
6.32979
5.9804
5.66522
5.38478
5.13185
4.90173
4.69147
4.49917
4.32349
4.16354
4.01895
3.88956
3.77575
3.67806
3.59703
3.53353
3.48967
3.46086
3.43929
3.43972
3.4472
3.4682
3.51207
3.56859
3.62561
3.6736
3.70828
3.72918
3.73781
3.73731
3.73446
3.72692
3.71113
3.68844
3.66211
3.6338
3.60415
3.57319
3.54112
3.50828
3.47491
3.44121
3.40741
3.37374
3.34047
3.30787
3.2763
3.24611
3.21788
3.19205
3.16956
3.14938
3.13267
3.12077
3.11348
3.11268
3.1141
3.11818
3.12717
3.14172
3.15583
3.16659
3.17245
3.17166
3.16835
3.16043
3.14395
3.1153
3.08239
3.04634
3.01026
2.97733
6.17801
5.7977
5.45781
5.13825
4.83139
4.5359
4.25359
3.98622
3.73584
3.50166
3.28584
3.08583
2.90392
2.73832
2.58942
2.46533
2.35691
2.32339
2.33449
2.37844
2.50299
2.79573
3.44098
4.81403
6.61896
7.00678
6.94592
6.77201
6.43706
6.10998
5.81046
5.53898
5.2913
5.06343
4.8523
4.65616
4.47375
4.30469
4.14876
4.00638
3.87762
3.76274
3.66231
3.57699
3.50746
3.45543
3.41915
3.39114
3.37625
3.37916
3.39114
3.41871
3.46857
3.52079
3.56992
3.60931
3.63588
3.64978
3.65115
3.6495
3.64394
3.6315
3.60931
3.58362
3.55599
3.52727
3.49774
3.46762
3.43709
3.40632
3.37555
3.34507
3.31525
3.28645
3.25922
3.23403
3.21167
3.19285
3.17639
3.16415
3.15648
3.15569
3.15723
3.16163
3.1715
3.18785
3.20428
3.2197
3.22879
3.23032
3.22871
3.22337
3.21054
3.1851
3.15291
3.11635
3.07707
3.03641
2.9977
2.96228
6.29988
5.88454
5.53004
5.21347
4.91562
4.62953
4.35624
4.09509
3.8499
3.61855
3.40466
3.20503
3.02247
2.85613
2.70606
2.58343
2.47948
2.47312
2.49139
2.55488
2.72303
3.08969
3.84571
5.06609
6.34779
6.88362
6.87181
6.79614
6.61083
6.28562
5.97455
5.69875
5.45039
5.22237
5.00984
4.81021
4.62228
4.44573
4.28078
4.12781
3.98708
3.8588
3.74321
3.64066
3.55155
3.47693
3.41693
3.37512
3.33868
3.31299
3.31157
3.31648
3.33182
3.36496
3.41318
3.46268
3.50555
3.53724
3.55627
3.56309
3.56226
3.55851
3.54917
3.53016
3.50598
3.47965
3.4525
3.42511
3.39775
3.37049
3.34352
3.31713
3.29181
3.26808
3.24665
3.2284
3.2137
3.2021
3.1941
3.19359
3.19531
3.20032
3.21155
3.22972
3.24889
3.26696
3.28192
3.28753
3.28654
3.28262
3.27324
3.2541
3.22303
3.18717
3.14748
3.1055
3.06281
3.02024
2.9809
2.94531
6.34316
5.97507
5.60982
5.2902
4.99714
4.71876
4.45275
4.19812
3.95772
3.72996
3.51788
3.3201
3.13812
2.97341
2.82881
2.712
2.65495
2.66527
2.71156
2.83892
3.12601
3.71392
4.4233
5.05851
5.80054
6.45204
6.70131
6.68703
6.61858
6.45307
6.16284
5.87935
5.62008
5.38343
5.16443
4.95922
4.76575
4.58289
4.41081
4.24958
4.09957
3.96074
3.8333
3.71728
3.613
3.52086
3.44164
3.37564
3.32637
3.28365
3.25265
3.23689
3.23879
3.24723
3.26743
3.308
3.35337
3.39767
3.43415
3.45865
3.47247
3.47329
3.47164
3.46602
3.45352
3.43129
3.40713
3.3825
3.35834
3.33488
3.31234
3.29119
3.27181
3.2551
3.24152
3.23232
3.22504
3.22525
3.2274
3.233
3.24569
3.26615
3.28823
3.31036
3.32843
3.34074
3.34173
3.33972
3.33323
3.31836
3.29031
3.25677
3.21743
3.17509
3.13138
3.08713
3.04358
3.00131
2.9629
2.92886
6.32268
6.09997
5.71327
5.37576
5.07916
4.80469
4.54467
4.29588
4.05999
3.83622
3.62683
3.43195
3.25332
3.09511
2.96339
2.88153
2.88668
2.92287
3.03269
3.28787
3.8129
4.4133
4.78344
5.0404
5.37219
5.87846
6.31522
6.51686
6.50862
6.45779
6.33011
6.08381
5.81384
5.55758
5.32224
5.10556
4.90395
4.71454
4.53627
4.36856
4.2113
4.06431
3.92758
3.80112
3.68499
3.57944
3.48488
3.40191
3.33134
3.27502
3.22796
3.18999
3.16337
3.16098
3.16455
3.17629
3.20208
3.24412
3.28831
3.32784
3.35863
3.37768
3.38681
3.38633
3.38358
3.37624
3.36091
3.34148
3.32148
3.30212
3.28459
3.26984
3.25815
3.2511
3.2465
3.24742
3.25081
3.25865
3.27353
3.29581
3.32088
3.34664
3.36989
3.38701
3.39364
3.3926
3.38826
3.37751
3.35538
3.32318
3.28519
3.24335
3.1992
3.15402
3.10912
3.06499
3.02255
2.98221
2.94586
2.91458
6.26237
6.12753
5.83215
5.47463
5.16582
4.89021
4.63372
4.38977
4.15821
3.93898
3.73342
3.54351
3.37325
3.23086
3.13263
3.13547
3.16828
3.27481
3.52663
4.04763
4.62091
4.90185
5.00279
5.05886
5.17519
5.40166
5.75466
6.1245
6.34635
6.36172
6.32861
6.23004
6.01991
5.7521
5.49351
5.25769
5.04253
4.84367
4.65806
4.48405
4.32041
4.16672
4.02255
3.88785
3.76245
3.64648
3.54013
3.44383
3.35811
3.2837
3.2219
3.17067
3.12617
3.0945
3.08008
3.0814
3.08788
3.10418
3.13747
3.17885
3.22116
3.25721
3.28363
3.29958
3.30696
3.30658
3.3044
3.29874
3.28702
3.27411
3.264
3.25692
3.25676
3.25827
3.26262
3.27286
3.29261
3.31724
3.34483
3.37488
3.4031
3.42489
3.44029
3.44064
3.4384
3.43117
3.4149
3.38565
3.35018
3.30889
3.26475
3.2194
3.17356
3.12833
3.08446
3.04243
3.00259
2.96528
2.93168
2.90381
6.16383
6.09987
5.9242
5.5771
5.25718
4.97651
4.72084
4.48067
4.25354
4.03933
3.8405
3.66036
3.50987
3.40125
3.40321
3.43673
3.54801
3.81289
4.36232
4.93445
5.1891
5.18824
5.16496
5.10704
5.11333
5.16544
5.30736
5.60081
5.97727
6.21616
6.24741
6.21897
6.13002
5.93823
5.67897
5.42332
5.18922
4.9759
4.77958
4.59726
4.42663
4.26646
4.11588
3.97442
3.84168
3.71756
3.60208
3.49549
3.39811
3.31044
3.23306
3.1669
3.11176
3.06294
3.02562
3.00183
2.99947
3.00244
3.01238
3.03461
3.07414
3.11715
3.15787
3.19149
3.21659
3.23289
3.24241
3.2484
3.24947
3.25038
3.25232
3.25644
3.26454
3.27862
3.2989
3.32536
3.35739
3.39205
3.4255
3.4546
3.4753
3.48431
3.48321
3.47853
3.46705
3.44328
3.41012
3.37044
3.32744
3.28175
3.23555
3.18965
3.1452
3.1022
3.061
3.02184
2.98502
2.95111
2.92049
2.89657
5.99992
6.00372
5.91905
5.70778
5.36854
5.07032
4.80928
4.57076
4.34833
4.1416
3.95389
3.79685
3.68304
3.6853
3.72229
3.84455
4.13397
4.73199
5.318
5.53211
5.5172
5.4491
5.29749
5.12633
5.06707
5.07884
5.13007
5.25881
5.52401
5.85665
6.07372
6.11136
6.08768
6.01072
5.84098
5.59773
5.34909
5.1185
4.90724
4.71291
4.53277
4.36478
4.2075
4.05971
3.92068
3.78986
3.66711
3.55248
3.44608
3.34823
3.25922
3.17969
3.11004
3.05204
2.99985
2.95765
2.92885
2.91795
2.91953
2.92626
2.94264
2.97604
3.01923
3.06476
3.10722
3.1434
3.17201
3.1948
3.21363
3.23078
3.24962
3.26956
3.2931
3.3222
3.35751
3.39639
3.43559
3.47097
3.49908
3.51823
3.51968
3.51722
3.51002
3.49387
3.46432
3.42735
3.38512
3.34007
3.29382
3.24816
3.20336
3.15963
3.11758
3.07731
3.03909
3.00319
2.96973
2.93976
2.91263
2.89367
5.57923
5.901
5.87238
5.74993
5.48567
5.17286
4.90194
4.66327
4.44706
4.25272
4.09005
3.97625
3.98
4.02368
4.16333
4.48873
5.155
5.75603
5.92854
5.90302
5.80475
5.59485
5.36153
5.17896
5.06713
5.05419
5.06697
5.11315
5.22239
5.44404
5.71493
5.9065
5.95704
5.93965
5.87732
5.73521
5.50956
5.27086
5.04511
4.83586
4.64292
4.46454
4.29889
4.14409
3.99873
3.86174
3.73272
3.61146
3.49793
3.39214
3.29427
3.20459
3.12376
3.05201
2.99131
2.93753
2.89273
2.86014
2.84203
2.84273
2.84768
2.86102
2.88923
2.93416
2.98606
3.03963
3.09065
3.13687
3.17882
3.21836
3.25771
3.29824
3.34137
3.38616
3.43148
3.47408
3.51078
3.53624
3.54925
3.54822
3.54361
3.5323
3.50906
3.4763
3.43664
3.39302
3.34801
3.30263
3.25766
3.21364
3.17105
3.13001
3.09085
3.05376
3.01898
2.98694
2.95756
2.93245
2.90969
2.89643
4.63039
5.66614
5.77912
5.72769
5.58286
5.289
5.00652
4.76548
4.55875
4.38955
4.27938
4.28612
4.33986
4.50405
4.87756
5.63274
6.24961
6.36576
6.32895
6.20185
5.93908
5.66926
5.44756
5.27725
5.15216
5.07483
5.05096
5.05678
5.08633
5.16464
5.32778
5.5479
5.72415
5.79003
5.77819
5.73151
5.62197
5.41423
5.19102
4.96929
4.76131
4.56955
4.39307
4.22956
4.07678
3.9332
3.79801
3.67081
3.55116
3.43897
3.33408
3.2368
3.14739
3.06633
2.99417
2.9318
2.87816
2.83245
2.79805
2.77656
2.77692
2.78107
2.79306
2.81951
2.86944
2.93249
3.00221
3.07419
3.14515
3.21347
3.27865
3.34123
3.40088
3.45577
3.50285
3.53987
3.56277
3.56659
3.56466
3.5583
3.54376
3.51505
3.47916
3.43813
3.39501
3.35079
3.30659
3.2629
3.22028
3.1789
3.13921
3.10135
3.06567
3.03237
3.00176
2.97437
2.95005
2.93089
2.91289
2.9061
2.96975
5.10706
5.65405
5.65642
5.58995
5.42353
5.13786
4.89143
4.7004
4.59198
4.60331
4.67198
4.86967
5.30679
6.17312
6.76199
6.82461
6.77743
6.62458
6.31391
6.01385
5.76874
5.57366
5.4127
5.27635
5.16289
5.07946
5.03141
5.02317
5.03544
5.08082
5.18457
5.36869
5.52604
5.60767
5.60156
5.56922
5.48582
5.31415
5.10281
4.88501
4.6803
4.49189
4.31792
4.15617
4.00488
3.86309
3.72989
3.60452
3.48669
3.37606
3.2729
3.17717
3.08923
3.00935
2.93806
2.87584
2.82341
2.78
2.74725
2.72847
2.72974
2.73566
2.7508
2.78275
2.84079
2.91723
3.00752
3.10535
3.20434
3.29829
3.38336
3.45578
3.51204
3.55176
3.57426
3.57352
3.56967
3.56083
3.5427
3.51177
3.4736
3.43274
3.39051
3.34786
3.30526
3.26336
3.22236
3.18277
3.14469
3.10858
3.07456
3.04307
3.01435
2.98885
2.96701
2.94926
2.93558
2.92418
2.92427
2.18659
3.84844
5.30221
5.57344
5.55912
5.48065
5.29826
5.05757