/*--------------------------------*- C++ -*----------------------------------*\
  =========                 |
  \\      /  F ield         | OpenFOAM: The Open Source CFD Toolbox
   \\    /   O peration     | Website:  https://openfoam.org
    \\  /    A nd           | Version:  13
     \\/     M anipulation  |
\*---------------------------------------------------------------------------*/
FoamFile
{
    format      ascii;
    class       surfaceScalarField;
    location    "4.5";
    object      phi;
}
// * * * * * * * * * * * * * * * * * * * * * * * * * * * * * * * * * * * * * //

dimensions      [1 0 -1 0 0 0 0];

internalField   nonuniform List<scalar> 
10325
(
0.0840003
1.5472e-09
0.0840005
2.69926e-09
0.0839998
2.93205e-08
0.0840014
2.94646e-08
0.0839968
1.93771e-07
0.0840082
2.94017e-07
0.0839792
9.55494e-07
0.0840443
2.26348e-06
0.0839013
5.22222e-06
0.0841187
1.44768e-05
0.083786
3.24386e-05
0.0839832
9.922e-05
0.0834566
0.00029873
0.0824429
0.00112444
0.0767108
0.00570279
0.0700526
0.00665687
0.0637539
0.00629971
0.0572583
0.00649651
0.0504475
0.00681292
0.0432273
0.00722032
0.0355166
0.00770997
0.027312
0.00820592
0.018659
0.00864566
0.00956806
0.0090911
0.00956843
0.0840003
1.12307e-09
0.0840002
1.32539e-08
0.0840007
2.75506e-08
0.0839993
1.26347e-07
0.0840016
2.28112e-07
0.0839974
7.37036e-07
0.0839999
1.69283e-06
0.0839946
4.15194e-06
0.0839892
1.11833e-05
0.0839728
2.54766e-05
0.0839543
7.22464e-05
0.0838229
0.000191757
0.0835263
0.000619814
0.0824054
0.00224241
0.0768314
0.0112676
0.0700236
0.0134662
0.063802
0.0125224
0.0573981
0.0129012
0.0506297
0.0135834
0.0433327
0.0145173
0.0355284
0.0155135
0.0272368
0.0164988
0.0184678
0.0174074
0.00931333
0.0182457
0.0188821
0.0840003
2.5623e-09
0.0840005
1.52509e-08
0.0839998
5.52163e-08
0.0840013
1.49681e-07
0.0839971
4.05071e-07
0.0840075
1.03672e-06
0.083981
2.46446e-06
0.0840404
6.62254e-06
0.0839094
1.50907e-05
0.084109
4.11129e-05
0.0837986
0.000101404
0.0839797
0.000290914
0.083481
0.000900323
0.082558
0.00327302
0.0775959
0.0162017
0.0706777
0.020383
0.0644342
0.018767
0.0580734
0.0192628
0.0513461
0.0203123
0.0440336
0.021831
0.0361575
0.0233881
0.0277651
0.0248924
0.018834
0.0263312
0.00948073
0.0275995
0.0283632
0.0840003
3.16881e-09
0.0840004
1.94943e-08
0.0840002
6.81806e-08
0.0840003
1.90393e-07
0.0839993
5.11026e-07
0.0840026
1.28091e-06
0.0839887
3.22953e-06
0.0840213
7.99198e-06
0.0839416
2.00225e-05
0.0840616
5.02239e-05
0.0838632
0.000131377
0.083958
0.000363257
0.0835883
0.00113319
0.0828748
0.00406228
0.0791741
0.0198781
0.0721965
0.02736
0.065812
0.0251524
0.0594258
0.0256497
0.0527061
0.0270341
0.0453838
0.0291516
0.0374543
0.0313185
0.0289129
0.0334339
0.0197525
0.0354858
0.0100108
0.0373419
0.0383749
0.0840003
4.56619e-09
0.0840004
1.78684e-08
0.0840003
8.84355e-08
0.0840002
1.76585e-07
0.0839997
6.55997e-07
0.0840013
1.18119e-06
0.0839933
4.23255e-06
0.0840122
7.41069e-06
0.0839621
2.58323e-05
0.0840411
5.06469e-05
0.083911
0.000156264
0.0839798
0.000397882
0.0837565
0.00127006
0.0834048
0.00446738
0.0819231
0.0213382
0.0748953
0.0343879
0.0681209
0.0319274
0.0615781
0.0321931
0.0548211
0.0337935
0.047471
0.0365025
0.0394551
0.0393315
0.0307363
0.0421573
0.0211964
0.0450165
0.0108682
0.0476686
0.0492423
0.0840003
2.5822e-09
0.0840003
2.59157e-08
0.0840003
6.43236e-08
0.0840003
2.50839e-07
0.0840006
4.81525e-07
0.0839984
1.66424e-06
0.0840051
3.01018e-06
0.0839835
1.03477e-05
0.0840324
1.92716e-05
0.0839432
6.17126e-05
0.084072
0.000136838
0.0839536
0.000405923
0.0841223
0.00119306
0.0843508
0.00417897
0.0867805
0.018917
0.0796188
0.0415502
0.0718031
0.0397451
0.064884
0.039113
0.0579358
0.0407416
0.0505432
0.0438974
0.0423664
0.047508
0.0333463
0.0511772
0.0233621
0.0549914
0.012197
0.0588365
0.0614409
0.0840003
3.67771e-09
0.0840004
1.84336e-08
0.0840003
7.72117e-08
0.0840003
1.81493e-07
0.0839998
5.69818e-07
0.0840021
1.22871e-06
0.0839941
3.54779e-06
0.0840164
7.75425e-06
0.0839674
2.10781e-05
0.0840669
4.95052e-05
0.0839518
0.000129393
0.0841436
0.000342496
0.0842196
0.00101286
0.0850696
0.00339314
0.0893071
0.0146521
0.0839102
0.0469499
0.0754874
0.0481679
0.0684809
0.0461197
0.0616956
0.0475292
0.0543326
0.051258
0.0461069
0.0557339
0.0368721
0.0604131
0.0263797
0.065482
0.0142274
0.0709847
0.075668
0.0840003
3.12698e-09
0.0840002
2.07626e-08
0.0840007
6.54596e-08
0.0839995
2.00326e-07
0.0840025
4.87946e-07
0.0839962
1.26238e-06
0.0840104
3.20772e-06
0.0839821
7.4209e-06
0.0840358
2.0259e-05
0.0839485
4.52628e-05
0.0840906
0.000125184
0.0839404
0.00031511
0.0841782
0.000940294
0.0844075
0.00308363
0.0860551
0.0130153
0.083076
0.0499228
0.0764095
0.0548327
0.0709616
0.0515677
0.0648065
0.0536865
0.0581049
0.0579596
0.0502446
0.0635933
0.0411466
0.0695121
0.0304617
0.0761628
0.0173809
0.0840618
0.0930479
0.0840003
3.39768e-09
0.0840005
1.85546e-08
0.0839999
7.05324e-08
0.0840013
1.84115e-07
0.0839983
5.16662e-07
0.0840053
1.24907e-06
0.0839901
3.18148e-06
0.084024
7.73387e-06
0.0839542
1.93202e-05
0.0840822
4.73672e-05
0.0838845
0.000121163
0.0841297
0.000318416
0.0839224
0.000919136
0.0841194
0.00301007
0.0849695
0.0121333
0.0819545
0.0529374
0.0791295
0.0576578
0.0732914
0.0574062
0.0673279
0.059651
0.0615172
0.0637733
0.0546292
0.0704772
0.046399
0.0777451
0.0364493
0.0861057
0.0225975
0.0979103
0.115645
0.0840003
3.33039e-09
0.0840004
1.88949e-08
0.084
7.15706e-08
0.0840011
1.841e-07
0.0839987
5.31184e-07
0.0840044
1.22333e-06
0.0839918
3.32305e-06
0.0840183
7.68666e-06
0.0839648
2.0108e-05
0.0840576
4.83224e-05
0.0839074
0.00012498
0.0840878
0.000324693
0.0838919
0.000928329
0.084018
0.00300186
0.0845231
0.0115791
0.0830474
0.054424
0.0789479
0.0617579
0.0746923
0.0616612
0.0702261
0.0641164
0.0651835
0.0688177
0.0597475
0.0759134
0.0533662
0.084129
0.0444573
0.0950158
0.0313735
0.11099
0.147018
0.0840003
3.13846e-09
0.0840003
2.08207e-08
0.0840003
6.91523e-08
0.0840003
2.02436e-07
0.0840003
5.18404e-07
0.0839994
1.34055e-06
0.0840026
3.312e-06
0.0839895
8.27594e-06
0.0840208
2.04812e-05
0.0839514
5.08671e-05
0.0840567
0.000128469
0.0839147
0.000335801
0.0840209
0.000942675
0.0839205
0.00300328
0.0843854
0.011167
0.0849778
0.0538204
0.0807472
0.0659869
0.0764994
0.0659072
0.0730808
0.0675383
0.0693521
0.0725481
0.065712
0.0795534
0.0614126
0.0884266
0.0572804
0.0991444
0.0569465
0.111323
0.115061
0.088902
0.0840003
2.8274e-09
0.0840003
2.2182e-08
0.0840002
6.57053e-08
0.0840005
2.17029e-07
0.0840001
4.88298e-07
0.0840002
1.43868e-06
0.084001
3.07756e-06
0.0839947
8.89311e-06
0.0840109
1.91701e-05
0.0839717
5.4207e-05
0.0840366
0.000124746
0.0839557
0.000342982
0.0840371
0.000926842
0.0840623
0.0029197
0.0847628
0.0105072
0.0890963
0.0494737
0.0845112
0.0705705
0.0797532
0.0706671
0.0762526
0.0710344
0.0733969
0.0754052
0.0708169
0.0821352
0.0688409
0.090404
0.0685006
0.0994874
0.0729645
0.106852
0.104788
0.0832414
0.0840003
3.45397e-09
0.0840004
1.73912e-08
0.0840002
7.15214e-08
0.0840007
1.69921e-07
0.0839993
5.28795e-07
0.0840032
1.15223e-06
0.0839937
3.31304e-06
0.0840191
7.28572e-06
0.083964
2.01182e-05
0.0840915
4.61314e-05
0.0838755
0.000123557
0.0842253
0.00030697
0.0839533
0.000854919
0.0845749
0.00257297
0.0859454
0.00898961
0.0965342
0.0389123
0.0907615
0.0763448
0.0847467
0.0766797
0.0808213
0.0749654
0.0781463
0.0780782
0.076393
0.0838864
0.0760843
0.0907172
0.0783517
0.097214
0.0838052
0.1014
0.0985096
0.0900829
0.0840003
2.47606e-09
0.0840003
1.62571e-08
0.0840004
5.39604e-08
0.0840001
1.58175e-07
0.0840011
4.00554e-07
0.0839988
1.03849e-06
0.0840059
2.53593e-06
0.0839904
6.34969e-06
0.084036
1.5555e-05
0.0839546
3.83985e-05
0.0841538
9.55571e-05
0.083958
0.000240013
0.0844833
0.000637756
0.0849525
0.00183637
0.0880612
0.00603117
0.102456
0.0244709
0.0976179
0.0811874
0.0930047
0.0812903
0.0869302
0.0810393
0.0837123
0.0812968
0.0824398
0.0851623
0.082898
0.090243
0.0854645
0.094662
0.0902077
0.0966501
0.0934987
0.0952182
0.0840003
2.11201e-09
0.0840003
1.36069e-08
0.0840003
4.65879e-08
0.0840003
1.32689e-07
0.0840006
3.45746e-07
0.0839997
8.79023e-07
0.0840034
2.15822e-06
0.0839939
5.40452e-06
0.0840237
1.30294e-05
0.0839654
3.27764e-05
0.0841103
7.96595e-05
0.0839377
0.000202753
0.0843167
0.000524709
0.084407
0.00148484
0.0858929
0.00475163
0.0918925
0.0183612
0.0989919
0.0741023
0.0957194
0.0845645
0.09152
0.0852296
0.0887538
0.0840745
0.0877963
0.0861137
0.0885131
0.0895347
0.0908618
0.0922991
0.0947135
0.0928097
0.0894164
0.0987949
0.0840003
1.74746e-09
0.0840003
1.22726e-08
0.0840004
3.94679e-08
0.0840002
1.20206e-07
0.0840007
2.93364e-07
0.0839994
7.97972e-07
0.0840034
1.83687e-06
0.0839938
4.91902e-06
0.0840216
1.12095e-05
0.083964
2.99195e-05
0.0841036
6.92479e-05
0.0838971
0.000183783
0.0842699
0.000459214
0.0841418
0.00129474
0.0851298
0.00401626
0.0886713
0.0146801
0.0987937
0.0640078
0.0975205
0.0858399
0.0952482
0.0875057
0.0929151
0.0864054
0.0921877
0.0868414
0.0930016
0.0887089
0.0950767
0.0902382
0.0981119
0.0897651
0.0862618
0.10128
0.0840003
1.6879e-09
0.0840003
1.01929e-08
0.0840004
3.60206e-08
0.0840002
9.9193e-08
0.0840009
2.67984e-07
0.0839995
6.56788e-07
0.0840032
1.69042e-06
0.0839965
4.07481e-06
0.084013
1.0373e-05
0.0839861
2.50485e-05
0.0840495
6.38095e-05
0.0839783
0.000157478
0.0841695
0.000408549
0.0841887
0.00110668
0.0849955
0.00335291
0.0879065
0.0116947
0.103655
0.0482732
0.10205
0.0874447
0.0996148
0.0899414
0.096917
0.0890982
0.0961616
0.0876105
0.096804
0.0880567
0.0984769
0.0885725
0.100806
0.0874223
0.0839172
0.103169
0.0840003
1.30895e-09
0.0840003
8.07327e-09
0.0840004
2.80917e-08
0.0840002
7.89769e-08
0.0840008
2.07366e-07
0.0839996
5.19517e-07
0.0840032
1.30587e-06
0.0839972
3.15335e-06
0.084016
7.96013e-06
0.0839866
1.89261e-05
0.0840732
4.81168e-05
0.0839896
0.00011568
0.0842921
0.000297413
0.0843804
0.000770653
0.0857566
0.00221163
0.0901759
0.00714359
0.110717
0.0277623
0.109098
0.0890618
0.106606
0.0924334
0.103009
0.0926945
0.100761
0.0898508
0.100541
0.0882885
0.101575
0.0875307
0.10318
0.0858241
0.0822676
0.104821
0.0840003
1.00884e-09
0.0840003
6.55074e-09
0.0840004
2.18998e-08
0.0840003
6.39487e-08
0.0840006
1.6267e-07
0.0839998
4.17951e-07
0.0840025
1.02583e-06
0.0839971
2.52984e-06
0.0840141
6.24485e-06
0.0839836
1.51268e-05
0.0840722
3.78371e-05
0.0839434
9.14199e-05
0.0842595
0.000232802
0.0841087
0.000592882
0.0849978
0.00165363
0.0867215
0.0051686
0.0952743
0.0193332
0.10967
0.074631
0.109077
0.093024
0.106977
0.0947933
0.104629
0.0921984
0.103916
0.089003
0.104388
0.0870593
0.105388
0.0848249
0.0812362
0.10642
0.0840003
7.82374e-10
0.0840003
5.34442e-09
0.0840003
1.73134e-08
0.0840004
5.20545e-08
0.0840004
1.28547e-07
0.0840004
3.44046e-07
0.084001
8.10834e-07
0.0839993
2.10226e-06
0.0840071
4.97509e-06
0.0839912
1.26618e-05
0.0840448
3.05287e-05
0.0839577
7.68482e-05
0.0841846
0.000190777
0.0840288
0.000489817
0.0846321
0.00133033
0.0855393
0.00402232
0.0908359
0.0141682
0.110052
0.0553834
0.111463
0.0916102
0.110594
0.0956611
0.108333
0.0944587
0.107059
0.0902735
0.106956
0.0871695
0.107439
0.0843346
0.0806853
0.107997
0.0840003
6.31797e-10
0.0840003
3.80445e-09
0.0840003
1.37303e-08
0.0840004
3.70797e-08
0.0840002
1.01501e-07
0.0840008
2.45247e-07
0.0840001
6.29452e-07
0.0840022
1.51908e-06
0.0840012
3.74233e-06
0.0840055
9.28746e-06
0.0840157
2.22201e-05
0.0840221
5.6403e-05
0.0841066
0.000135241
0.084206
0.000348661
0.0846768
0.000897647
0.0860939
0.00257419
0.0919939
0.00830244
0.116305
0.0310544
0.117162
0.0907519
0.116216
0.0966069
0.113678
0.0969954
0.110875
0.0930794
0.109795
0.0882476
0.109639
0.0844939
0.0806062
0.109713
0.0840003
4.2521e-10
0.0840003
3.09855e-09
0.0840003
9.62803e-09
0.0840003
3.01944e-08
0.0840004
7.16307e-08
0.0840002
1.9715e-07
0.0840011
4.48888e-07
0.0839995
1.1912e-06
0.0840057
2.73222e-06
0.0839949
7.06188e-06
0.0840336
1.65349e-05
0.0839755
4.1902e-05
0.0841616
0.000100786
0.0839954
0.000254312
0.0845993
0.000646591
0.0850212
0.00177981
0.0881237
0.0054946
0.098975
0.0200458
0.117323
0.0724334
0.11838
0.0955508
0.116889
0.098486
0.114055
0.0959124
0.112761
0.0895448
0.111974
0.0852752
0.0809751
0.111612
0.0840003
3.58728e-10
0.0840003
2.18592e-09
0.0840003
7.75104e-09
0.0840003
2.13695e-08
0.0840003
5.72169e-08
0.0840005
1.41368e-07
0.0840001
3.55994e-07
0.0840019
8.6713e-07
0.0839987
2.14224e-06
0.0840106
5.23494e-06
0.0839906
1.28689e-05
0.0840575
3.15824e-05
0.0839635
7.77778e-05
0.0842391
0.000194255
0.0840737
0.000490801
0.084907
0.00131547
0.0862107
0.00387396
0.0930821
0.0133426
0.1171
0.0483753
0.11998
0.0926677
0.120682
0.0977835
0.119169
0.0974248
0.115841
0.0928777
0.114508
0.0866008
0.0818573
0.113623
0.0840003
2.59554e-10
0.0840003
1.5603e-09
0.0840003
5.60433e-09
0.0840003
1.52596e-08
0.0840003
4.12206e-08
0.0840004
1.00671e-07
0.0840003
2.5538e-07
0.0840012
6.1403e-07
0.0839998
1.52559e-06
0.0840072
3.68637e-06
0.0839958
9.02866e-06
0.0840441
2.20826e-05
0.0839821
5.37642e-05
0.0842219
0.000133147
0.0840806
0.000329779
0.0849396
0.000854142
0.0860598
0.0023668
0.0921981
0.00744451
0.113965
0.0265344
0.124188
0.0824445
0.124127
0.0978429
0.122301
0.0992509
0.118874
0.0963008
0.117266
0.0882127
0.0832771
0.115841
0.0840003
1.88331e-10
0.0840003
1.11933e-09
0.0840003
4.01797e-09
0.0840003
1.09046e-08
0.0840004
2.9627e-08
0.0840003
7.15231e-08
0.0840005
1.85164e-07
0.0840006
4.33421e-07
0.0840007
1.11266e-06
0.0840034
2.59807e-06
0.0839996
6.61705e-06
0.0840233
1.56082e-05
0.0839947
3.93471e-05
0.0841288
9.48065e-05
0.0840422
0.000238382
0.0845586
0.000600377
0.0850084
0.00161881
0.0878811
0.00483985
0.0972345
0.0170218
0.121795
0.0579135
0.125151
0.0944894
0.12588
0.0985228
0.124447
0.0977331
0.120514
0.0921507
0.0854921
0.118291
0.0840003
1.21212e-10
0.0840003
8.03646e-10
0.0840003
2.6511e-09
0.0840003
7.84121e-09
0.0840004
1.96612e-08
0.0840003
5.07856e-08
0.0840006
1.23344e-07
0.0840002
3.03601e-07
0.0840018
7.44835e-07
0.0839999
1.7858e-06
0.0840083
4.45726e-06
0.0840004
1.04916e-05
0.0840393
2.65808e-05
0.0840216
6.21523e-05
0.0841872
0.000159183
0.0842694
0.000383111
0.0850523
0.00101182
0.0869293
0.00279552
0.0950886
0.00895639
0.122315
0.0306574
0.129394
0.087413
0.129564
0.0983527
0.127392
0.0999044
0.123959
0.0955743
0.088064
0.121398
0.0840003
8.20622e-11
0.0840003
5.49251e-10
0.0840003
1.82753e-09
0.0840003
5.35592e-09
0.0840003
1.34933e-08
0.0840004
3.51145e-08
0.0840004
8.31672e-08
0.0840005
2.13062e-07
0.0840008
4.95496e-07
0.0840007
1.26598e-06
0.0840045
2.9476e-06
0.0839999
7.45815e-06
0.084029
1.75916e-05
0.0839987
4.4028e-05
0.0841586
0.000106072
0.0840801
0.00026471
0.0847146
0.000666773
0.0853863
0.00179328
0.0892578
0.00538059
0.100993
0.0187465
0.126794
0.0616459
0.129837
0.0953115
0.13158
0.0981637
0.128888
0.0982642
0.091772
0.125177
0.0840003
6.01127e-11
0.0840003
3.52717e-10
0.0840003
1.28182e-09
0.0840003
3.44662e-09
0.0840003
9.41239e-09
0.0840004
2.26165e-08
0.0840003
5.81596e-08
0.0840006
1.36636e-07
0.0840002
3.46164e-07
0.084002
8.11214e-07
0.0840001
2.03783e-06
0.0840093
4.82689e-06
0.0840011
1.19505e-05
0.0840445
2.87555e-05
0.0840252
7.04895e-05
0.0842112
0.000173301
0.0843003
0.000430147
0.0851709
0.00111535
0.0872457
0.00312071
0.0960603
0.0100411
0.124121
0.033548
0.132813
0.086621
0.133617
0.0973584
0.132188
0.0996933
0.0955557
0.128392
0.0840003
3.68541e-11
0.0840003
2.47621e-10
0.0840003
8.2353e-10
0.0840003
2.40664e-09
0.0840003
6.06398e-09
0.0840004
1.57338e-08
0.0840003
3.73114e-08
0.0840004
9.53116e-08
0.0840005
2.21301e-07
0.0840007
5.65678e-07
0.0840019
1.30566e-06
0.0840012
3.33353e-06
0.0840119
7.72994e-06
0.0840029
1.9583e-05
0.0840731
4.60634e-05
0.0840297
0.000115732
0.0843643
0.00028053
0.0845012
0.000714811
0.0860207
0.00190235
0.0900757
0.00570548
0.104394
0.0193921
0.130099
0.0608824
0.133307
0.0941484
0.135644
0.0973564
0.0976239
0.133573
0.0840003
2.53125e-11
0.0840003
1.57001e-10
0.0840003
5.48869e-10
0.0840003
1.53134e-09
0.0840003
4.04103e-09
0.0840003
9.9531e-09
0.0840003
2.5028e-08
0.0840004
5.96893e-08
0.0840003
1.48603e-07
0.084001
3.52382e-07
0.0840002
8.74573e-07
0.0840045
2.0721e-06
0.0840005
5.12758e-06
0.0840235
1.22071e-05
0.0840063
3.00851e-05
0.0841163
7.2287e-05
0.0840966
0.00017849
0.0845666
0.000440617
0.085061
0.00113591
0.0878796
0.00315987
0.0970389
0.0100594
0.125525
0.0324501
0.135919
0.0837486
0.136594
0.0966822
0.0978296
0.136389
0.0840003
1.71306e-11
0.0840003
9.89005e-11
0.0840003
3.66067e-10
0.0840003
9.64483e-10
0.0840003
2.68113e-09
0.0840003
6.33213e-09
0.0840003
1.643e-08
0.0840004
3.82898e-08
0.0840003
9.66409e-08
0.0840008
2.27979e-07
0.0840004
5.63014e-07
0.0840024
1.35279e-06
0.084002
3.27119e-06
0.0840091
8.03656e-06
0.0840171
1.90568e-05
0.0840392
4.7699e-05
0.0841159
0.000112647
0.0842426
0.000286228
0.0847162
0.000701951
0.0859439
0.00189015
0.0905131
0.00555249
0.104328
0.0185916
0.131988
0.0560831
0.136926
0.0917459
0.0961114
0.138645
0.0840003
9.71981e-12
0.0840003
6.67557e-11
0.0840003
2.16312e-10
0.0840003
6.49145e-10
0.0840003
1.59243e-09
0.0840003
4.19241e-09
0.0840003
9.82114e-09
0.0840003
2.49053e-08
0.0840004
5.84467e-08
0.0840003
1.44888e-07
0.084001
3.44707e-07
0.0840005
8.38067e-07
0.0840043
2.02787e-06
0.0840019
4.84143e-06
0.084022
1.18822e-05
0.0840144
2.80893e-05
0.08411
6.96999e-05
0.0841358
0.000165094
0.0845772
0.000416257
0.0852012
0.00104044
0.0881192
0.00287342
0.0976725
0.00888083
0.126107
0.0276912
0.139074
0.0787808
0.0956073
0.139578
0.0840003
6.619e-12
0.0840003
3.92534e-11
0.0840003
1.43045e-10
0.0840003
3.83192e-10
0.0840003
1.04432e-09
0.0840003
2.51271e-09
0.0840003
6.34982e-09
0.0840004
1.51619e-08
0.0840003
3.7103e-08
0.0840005
8.97675e-08
0.0840005
2.14477e-07
0.0840008
5.29655e-07
0.0840019
1.23987e-06
0.084002
3.10792e-06
0.0840119
7.19388e-06
0.084006
1.82037e-05
0.0840742
4.2023e-05
0.08404
0.000106799
0.0843904
0.000251672
0.0844847
0.000645614
0.0860879
0.00165876
0.0897297
0.00484608
0.101787
0.015883
0.132405
0.0480983
0.0878985
0.14011
0.0840003
3.86855e-12
0.0840003
2.5054e-11
0.0840003
8.4964e-11
0.0840003
2.4376e-10
0.0840003
6.25021e-10
0.0840003
1.57404e-09
0.0840003
3.83937e-09
0.0840003
9.36317e-09
0.0840004
2.26058e-08
0.0840003
5.4596e-08
0.0840006
1.32113e-07
0.0840005
3.16695e-07
0.0840016
7.6833e-07
0.0840017
1.83579e-06
0.0840061
4.47355e-06
0.0840117
1.06332e-05
0.0840262
2.60428e-05
0.0840788
6.19756e-05
0.0841532
0.000152583
0.0844701
0.00037067
0.0851457
0.000939382
0.0875082
0.00251824
0.095753
0.00761633
0.119959
0.0239096
0.0681524
0.139681
0.0840003
2.3494e-12
0.0840003
1.5378e-11
0.0840003
5.18287e-11
0.0840003
1.49675e-10
0.0840003
3.80073e-10
0.0840003
9.69274e-10
0.0840003
2.32547e-09
0.0840003
5.76784e-09
0.0840004
1.36808e-08
0.0840003
3.36344e-08
0.0840005
7.97492e-08
0.0840004
1.94913e-07
0.0840012
4.63646e-07
0.0840009
1.12777e-06
0.0840043
2.70102e-06
0.0840062
6.50709e-06
0.0840172
1.57516e-05
0.0840456
3.77402e-05
0.0840835
9.20877e-05
0.0842856
0.000222553
0.0845773
0.000554064
0.0857971
0.00141837
0.0892846
0.00399812
0.100555
0.012726
0.038109
0.130593
0.0840003
1.43689e-12
0.0840003
9.19631e-12
0.0840003
3.14356e-11
0.0840003
8.96372e-11
0.0840003
2.29919e-10
0.0840003
5.80105e-10
0.0840003
1.40559e-09
0.0840003
3.44823e-09
0.0840003
8.26659e-09
0.0840003
2.00583e-08
0.0840004
4.81429e-08
0.0840004
1.16158e-07
0.0840007
2.80176e-07
0.084001
6.71169e-07
0.0840019
1.62775e-06
0.0840059
3.88532e-06
0.0840064
9.46187e-06
0.0840378
2.25103e-05
0.0840332
5.51909e-05
0.0842169
0.000131889
0.0842693
0.000326726
0.0851386
0.000809192
0.0867071
0.00214294
0.0933619
0.00628518
0.0197648
0.111619
0.0840003
8.51789e-13
0.0840003
5.47768e-12
0.0840003
1.85493e-11
0.0840003
5.32843e-11
0.0840003
1.35939e-10
0.0840003
3.42278e-10
0.0840003
8.35033e-10
0.0840003
2.01519e-09
0.0840003
4.92521e-09
0.0840003
1.16198e-08
0.0840004
2.86655e-08
0.0840004
6.6836e-08
0.0840005
1.65888e-07
0.0840009
3.84472e-07
0.0840011
9.55369e-07
0.0840042
2.21729e-06
0.0840038
5.47927e-06
0.0840256
1.28367e-05
0.0840184
3.13296e-05
0.0841525
7.46508e-05
0.0841369
0.000181269
0.0847924
0.000442588
0.0854035
0.00111553
0.0891233
0.00301886
0.00919216
0.0993853
0.0840003
4.95233e-13
0.0840003
3.22554e-12
0.0840003
1.0931e-11
0.0840003
3.14057e-11
0.0840003
7.97577e-11
0.0840003
2.03028e-10
0.0840003
4.84363e-10
0.0840003
1.20226e-09
0.0840003
2.8326e-09
0.0840003
6.95394e-09
0.0840004
1.64213e-08
0.0840003
3.99039e-08
0.0840005
9.50986e-08
0.0840004
2.28559e-07
0.0840014
5.49467e-07
0.0840011
1.30854e-06
0.0840059
3.17287e-06
0.0840069
7.48697e-06
0.0840253
1.83165e-05
0.0840512
4.30456e-05
0.0841239
0.000105991
0.0843263
0.000252225
0.0847886
0.000631629
0.0862228
0.00160623
0.00457096
0.0908086
0.0840003
2.93781e-13
0.0840003
1.82755e-12
0.0840003
6.43675e-12
0.0840003
1.77876e-11
0.0840003
4.69707e-11
0.0840003
1.14883e-10
0.0840003
2.84713e-10
0.0840003
6.81817e-10
0.0840003
1.64885e-09
0.0840003
3.97484e-09
0.0840003
9.44363e-09
0.0840003
2.29946e-08
0.0840004
5.40604e-08
0.0840004
1.32579e-07
0.084001
3.10176e-07
0.0840007
7.6141e-07
0.0840042
1.78215e-06
0.0840025
4.37172e-06
0.084022
1.0267e-05
0.0840154
2.50493e-05
0.0841155
5.94987e-05
0.0841175
0.00014482
0.0845815
0.000350908
0.0850419
0.000876346
0.00229829
0.0876122
0.0840003
1.63237e-13
0.0840003
1.07053e-12
0.0840003
3.59374e-12
0.0840003
1.04051e-11
0.0840003
2.62687e-11
0.0840003
6.67538e-11
0.0840003
1.59792e-10
0.0840003
3.92418e-10
0.0840003
9.32007e-10
0.0840003
2.25425e-09
0.0840003
5.37228e-09
0.0840003
1.28935e-08
0.0840004
3.08106e-08
0.0840004
7.35484e-08
0.0840007
1.76541e-07
0.0840007
4.1928e-07
0.0840021
1.01001e-06
0.0840031
2.38702e-06
0.0840084
5.77681e-06
0.0840203
1.361e-05
0.0840389
3.29723e-05
0.0841307
7.79917e-05
0.0842276
0.000189904
0.0847629
0.000458336
0.00115691
0.0857411
0.0840003
9.11534e-14
0.0840003
6.03983e-13
0.0840003
2.03769e-12
0.0840003
5.86052e-12
0.0840003
1.48776e-11
0.0840003
3.77386e-11
0.0840003
8.97928e-11
0.0840003
2.22528e-10
0.0840003
5.19415e-10
0.0840003
1.2817e-09
0.0840003
2.98294e-09
0.0840003
7.29441e-09
0.0840004
1.71624e-08
0.0840004
4.13514e-08
0.0840005
9.85111e-08
0.0840005
2.3422e-07
0.0840015
5.64641e-07
0.0840015
1.32749e-06
0.0840058
3.22848e-06
0.0840094
7.53041e-06
0.084025
1.84524e-05
0.084064
4.29525e-05
0.0841242
0.000105595
0.0843935
0.000249537
0.000621721
0.0848156
0.0840003
5.32454e-14
0.0840003
3.25998e-13
0.0840003
1.15178e-12
0.0840003
3.16494e-12
0.0840003
8.39415e-12
0.0840003
2.03828e-11
0.0840003
5.04088e-11
0.0840003
1.20494e-10
0.0840003
2.88694e-10
0.0840003
6.96122e-10
0.0840003
1.63665e-09
0.0840003
3.99231e-09
0.0840003
9.24992e-09
0.0840004
2.2811e-08
0.0840004
5.24038e-08
0.0840005
1.29799e-07
0.0840009
2.97816e-07
0.0840009
7.34277e-07
0.0840042
1.70199e-06
0.0840031
4.14172e-06
0.0840226
9.73739e-06
0.0840181
2.3367e-05
0.084124
5.59834e-05
0.0841227
0.000132979
0.0003263
0.0846325
0.0840003
2.83799e-14
0.0840003
1.75564e-13
0.0840003
6.10653e-13
0.0840003
1.701e-12
0.0840003
4.41614e-12
0.0840003
1.08741e-11
0.0840003
2.65771e-11
0.0840003
6.32508e-11
0.0840003
1.52916e-10
0.0840003
3.59445e-10
0.0840003
8.66578e-10
0.0840003
2.03228e-09
0.0840003
4.87717e-09
0.0840004
1.14563e-08
0.0840003
2.74036e-08
0.0840005
6.43129e-08
0.0840004
1.53628e-07
0.0840013
3.61172e-07
0.0840011
8.58065e-07
0.0840053
2.02311e-06
0.0840064
4.78694e-06
0.0840242
1.13221e-05
0.0840453
2.66552e-05
0.0841183
6.34621e-05
0.000149984
0.0842934
0.0840003
1.404e-14
0.0840003
8.98435e-14
0.0840003
3.02907e-13
0.0840003
8.78281e-13
0.0840003
2.20576e-12
0.0840003
5.52259e-12
0.0840003
1.32845e-11
0.0840003
3.14622e-11
0.0840003
7.6353e-11
0.0840003
1.73868e-10
0.0840003
4.30991e-10
0.0840003
9.56317e-10
0.0840003
2.40547e-09
0.0840003
5.26061e-09
0.0840003
1.3238e-08
0.0840004
2.90834e-08
0.0840004
7.20128e-08
0.0840009
1.60334e-07
0.0840007
3.87852e-07
0.0840032
8.81145e-07
0.0840033
2.06384e-06
0.0840134
4.82588e-06
0.0840244
1.08527e-05
0.0840595
2.62109e-05
5.71931e-05
0.0841617
0.0840003
6.16e-15
0.0840003
4.32178e-14
0.0840003
1.49404e-13
0.0840003
4.24187e-13
0.0840003
1.06992e-12
0.0840003
2.68363e-12
0.0840003
6.2704e-12
0.0840003
1.53421e-11
0.0840003
3.48585e-11
0.0840003
8.518e-11
0.0840003
1.90576e-10
0.0840003
4.64373e-10
0.0840003
1.03879e-09
0.0840003
2.499e-09
0.0840003
5.6425e-09
0.0840003
1.3295e-08
0.0840005
3.04648e-08
0.0840003
7.00157e-08
0.0840011
1.62828e-07
0.0840003
3.65093e-07
0.0840045
8.59129e-07
0.0840006
1.86992e-06
0.0840216
4.47663e-06
0.0840055
9.44561e-06
2.27774e-05
0.0840985
0.0840003
4.10999e-15
0.0840003
1.77829e-14
0.0840003
7.49483e-14
0.0840003
1.76578e-13
0.0840003
5.25889e-13
0.0840003
1.11806e-12
0.0840003
3.05521e-12
0.0840003
6.30647e-12
0.0840003
1.66433e-11
0.0840003
3.45095e-11
0.0840003
8.85843e-11
0.0840003
1.88277e-10
0.0840003
4.58798e-10
0.0840003
1.03157e-09
0.0840003
2.33875e-09
0.0840003
5.57254e-09
0.0840004
1.18199e-08
0.0840003
2.9935e-08
0.0840008
5.85714e-08
0.0839998
1.58353e-07
0.0840034
2.8871e-07
0.0839966
8.28754e-07
0.0840182
1.37698e-06
0.08398
4.3053e-06
6.80712e-06
0.0840857
0.0840003
1.2876e-15
0.0840003
1.1967e-14
0.0840003
2.64719e-14
0.0840003
9.72666e-14
0.0840003
1.87024e-13
0.0840003
5.8026e-13
0.0840003
1.06446e-12
0.0840003
3.19133e-12
0.0840003
5.8532e-12
0.0840003
1.67904e-11
0.0840003
3.19121e-11
0.0840003
8.45634e-11
0.0840003
1.77204e-10
0.0840003
4.1065e-10
0.0840003
9.81748e-10
0.0840003
1.96108e-09
0.0840004
5.34995e-09
0.0840002
9.12801e-09
0.0840007
2.94944e-08
0.0839999
4.1511e-08
0.0840017
1.58514e-07
0.0839988
1.74631e-07
0.0840036
8.73168e-07
0.0839981
6.76296e-07
4.32438e-06
0.0840089
0.0840003
4.11129e-16
0.0840003
3.47162e-15
0.0840003
1.1758e-14
0.0840003
3.50252e-14
0.0840003
8.37917e-14
0.0840003
2.29473e-13
0.0840003
4.28806e-13
0.0840003
1.36934e-12
0.0840003
2.06539e-12
0.0840003
7.88464e-12
0.0840003
9.46765e-12
0.0840003
4.49049e-11
0.0840003
3.99671e-11
0.0840003
2.47427e-10
0.0840003
1.90543e-10
0.0840003
1.2735e-09
0.0840004
1.06351e-09
0.0840002
6.27719e-09
0.0840006
7.21828e-09
0.0839995
2.52074e-08
0.0840025
5.032e-08
0.0839951
1.00486e-07
0.0840134
3.12791e-07
0.0839724
3.46528e-07
1.90706e-06
0.0840607
0.0840003
1.22081e-15
0.0840003
2.43295e-16
0.0840003
8.45895e-15
0.0840003
4.62087e-15
0.0840003
5.70557e-14
0.0840003
2.17745e-14
0.0840003
3.23675e-13
0.0840003
1.6154e-13
0.0840003
1.6292e-12
0.0840003
1.51716e-12
0.0840003
6.82245e-12
0.0840003
1.2535e-11
0.0840003
2.74981e-11
0.0840003
9.40994e-11
0.0840003
7.37713e-11
0.0840003
6.42626e-10
0.0840003
1.12355e-10
0.0840004
4.00419e-09
0.0840002
-1.32682e-09
0.0840004
2.44652e-08
0.0840002
-1.76047e-08
0.083999
1.3732e-07
0.0840031
-1.32233e-07
0.0839866
6.70323e-07
-6.45625e-07
0.0840224
0.0840003
0.0840003
0.0840003
0.0840003
0.0840003
0.0840003
0.0840003
0.0840003
0.0840003
0.0840003
0.0840003
0.0840003
0.0840003
0.0840003
0.0840003
0.0840003
0.0840003
0.0840004
0.084
0.0840012
0.0839981
0.0840054
0.0839884
0.0840273
0.0839408
0.048343
0.0405595
0.0321319
0.0162087
0.0251958
0.00693585
0.0223709
0.00281092
0.0221369
0.000197326
0.0241414
-0.00203849
0.0263103
-0.00225242
0.02713
-0.000978819
0.0264258
0.000396865
0.023245
0.00248652
0.0169237
0.00485166
0.00897089
0.00718859
0.0018104
0.00697422
-0.00465205
0.00635191
-0.0106472
0.00590692
-0.0155361
0.00490007
-0.0192423
0.0038269
-0.0219318
0.00273599
-0.023578
0.0016859
-0.0245988
0.00110017
-0.0255085
0.000985018
-0.0264716
0.00103787
-0.027434
0.00102334
-0.0282435
0.000866119
-0.028856
0.000679866
-0.0294452
0.000636038
-0.0299909
0.000594933
-0.0303777
0.000434609
-0.0305348
0.000187061
-0.0303934
-0.000134809
-0.0298121
-0.000596392
-0.0286854
-0.00115718
-0.02703
-0.00169277
-0.0248492
-0.00221757
-0.0223235
-0.00255924
-0.0195871
-0.00276039
-0.0167311
-0.00287047
-0.0138277
-0.00290994
-0.0108427
-0.00298383
-0.00787739
-0.00295856
-0.00495757
-0.00290986
-0.00202125
-0.00292499
0.000966329
-0.00297581
0.00373753
-0.00275968
0.0063253
-0.00257538
0.00879607
-0.00245864
0.0111627
-0.00235388
0.0134115
-0.00223652
0.0155399
-0.00211562
0.0175756
-0.00202404
0.0195732
-0.00198725
0.0214887
-0.00190736
0.0233134
-0.0018192
0.0250376
-0.00172157
0.0266718
-0.00163445
0.0282177
-0.00154813
0.0296806
-0.00146993
0.0310638
-0.00139051
0.0323703
-0.00131762
0.0336037
-0.00124281
0.0347698
-0.00117454
0.0358687
-0.00110485
0.0369046
-0.00104136
0.0378764
-0.000977099
0.038791
-0.000918774
0.0396484
-0.000860557
0.0404551
-0.000807826
0.0412101
-0.000755521
0.0419161
-0.000707748
0.042575
-0.000660423
0.0431878
-0.000617025
0.0437562
-0.000573922
0.0442823
-0.000534165
0.0447669
-0.000494599
0.0452127
-0.000457864
0.04562
-0.00042137
0.045992
-0.000387381
0.0463293
-0.000353848
0.0466345
-0.000322701
0.0469085
-0.000292303
0.0471538
-0.00026427
0.0473712
-0.000237235
0.047563
-0.000212544
0.0477307
-0.000189071
0.0478757
-0.000167817
0.0480001
-0.000147921
0.0481052
-0.000130203
0.0481921
-0.000114018
0.0482629
-9.99282e-05
0.0483184
-8.77103e-05
0.0483606
-7.78103e-05
0.0483902
-6.99964e-05
0.0484088
-6.45938e-05
0.048417
-6.1404e-05
0.0484164
-6.05037e-05
0.0484055
-6.14077e-05
0.0483862
-6.35964e-05
0.0483546
-6.67048e-05
0.0483082
-6.62056e-05
-7.67851e-05
0.0636004
0.0601958
0.0491712
0.0306425
0.0419395
0.0141629
0.0390859
0.0056593
0.0379376
0.00135488
0.0365705
-0.000735481
0.035662
-0.00142444
0.0358723
-0.0013283
0.0365243
-0.000523508
0.0371091
0.00129591
0.0349523
0.00564463
0.0294052
0.0120197
0.0232211
0.0129812
0.017846
0.0118143
0.0130971
0.0107767
0.00852812
0.00961043
0.00435315
0.00816051
0.000263591
0.00693567
-0.0040091
0.00601563
-0.00788399
0.00506811
-0.0111241
0.00434052
-0.0136866
0.00371063
-0.0156635
0.00305057
-0.0171275
0.00239838
-0.0181221
0.00174601
-0.0187153
0.00127994
-0.019186
0.00111692
-0.0194212
0.000719587
-0.0193048
0.000105276
-0.0188708
-0.000563961
-0.017899
-0.0015874
-0.0162664
-0.00283375
-0.0141361
-0.00387954
-0.0114882
-0.00491836
-0.00863441
-0.00546192
-0.00568771
-0.00574696
-0.0026793
-0.00590689
0.000458855
-0.00606793
0.00339254
-0.0059245
0.00618634
-0.00575116
0.00893896
-0.00565242
0.011544
-0.00551765
0.0139924
-0.00540575
0.0164431
-0.00518943
0.0188595