/*--------------------------------*- C++ -*----------------------------------*\
  =========                 |
  \\      /  F ield         | OpenFOAM: The Open Source CFD Toolbox
   \\    /   O peration     | Website:  https://openfoam.org
    \\  /    A nd           | Version:  13
     \\/     M anipulation  |
\*---------------------------------------------------------------------------*/
FoamFile
{
    format      ascii;
    class       volVectorField;
    location    "4.5";
    object      U;
}
// * * * * * * * * * * * * * * * * * * * * * * * * * * * * * * * * * * * * * //

dimensions      [0 1 -1 0 0 0 0];

internalField   nonuniform List<vector> 
5250
(
(3 1.64245e-08 0)
(2.99999 5.23945e-08 0)
(2.99997 3.83474e-07 0)
(2.99991 5.25581e-07 0)
(2.99978 2.57051e-06 0)
(2.99946 4.84965e-06 0)
(2.99867 1.23857e-05 0)
(2.9967 3.60549e-05 0)
(2.99187 6.72874e-05 0)
(2.97964 0.00021079 0)
(2.9481 0.000452617 0)
(2.86153 0.00127684 0)
(2.61109 0.00336611 0)
(1.87564 0.00978264 0)
(0.871476 0.0265026 0)
(0.441847 0.0243688 0)
(0.534919 0.0244181 0)
(0.560392 0.0262586 0)
(0.505764 0.028119 0)
(0.41516 0.0300125 0)
(0.330264 0.0322414 0)
(0.261595 0.0348419 0)
(0.192952 0.0375428 0)
(0.1149 0.0406101 0)
(0.0495436 0.0446737 0)
(3 3.69138e-08 0)
(2.99999 2.29737e-07 0)
(2.99997 8.00049e-07 0)
(2.99991 2.25872e-06 0)
(2.99979 5.94896e-06 0)
(2.99946 1.5082e-05 0)
(2.9987 3.75894e-05 0)
(2.99674 9.37289e-05 0)
(2.99201 0.000231873 0)
(2.97997 0.000579331 0)
(2.94897 0.00146226 0)
(2.86402 0.00381966 0)
(2.61796 0.0105325 0)
(1.89452 0.0302451 0)
(0.882084 0.0807607 0)
(0.438556 0.070372 0)
(0.534997 0.06728 0)
(0.561658 0.0702701 0)
(0.506717 0.0733283 0)
(0.416113 0.0765471 0)
(0.331174 0.0801127 0)
(0.261904 0.0839875 0)
(0.192231 0.0875317 0)
(0.112869 0.090828 0)
(0.0469143 0.0936108 0)
(3 5.72269e-08 0)
(2.99999 4.09383e-07 0)
(2.99997 1.24929e-06 0)
(2.99992 3.99675e-06 0)
(2.99979 9.52187e-06 0)
(2.99948 2.58216e-05 0)
(2.99874 6.24682e-05 0)
(2.99686 0.000156854 0)
(2.99227 0.000390493 0)
(2.98067 0.000970476 0)
(2.9508 0.00245669 0)
(2.8691 0.00642034 0)
(2.63317 0.0177527 0)
(1.93578 0.0512131 0)
(0.907704 0.138508 0)
(0.435979 0.119578 0)
(0.538945 0.113079 0)
(0.568363 0.118249 0)
(0.513274 0.124035 0)
(0.42295 0.130712 0)
(0.337976 0.137494 0)
(0.267885 0.144552 0)
(0.196799 0.151271 0)
(0.115495 0.157185 0)
(0.0471594 0.160717 0)
(3 8.42851e-08 0)
(2.99999 5.24413e-07 0)
(2.99997 1.85619e-06 0)
(2.99992 5.13139e-06 0)
(2.9998 1.38388e-05 0)
(2.99951 3.48868e-05 0)
(2.99881 8.58845e-05 0)
(2.99702 0.000218999 0)
(2.99269 0.00052443 0)
(2.98169 0.00134126 0)
(2.95352 0.00332168 0)
(2.87676 0.00875989 0)
(2.65562 0.0240761 0)
(1.99955 0.0697129 0)
(0.948767 0.192249 0)
(0.436451 0.168193 0)
(0.547956 0.158417 0)
(0.581588 0.165573 0)
(0.526567 0.174232 0)
(0.436593 0.184974 0)
(0.351146 0.195449 0)
(0.279891 0.206246 0)
(0.206851 0.216915 0)
(0.122379 0.226258 0)
(0.04968 0.231042 0)
(3 1.16068e-07 0)
(2.99999 5.54117e-07 0)
(2.99997 2.35235e-06 0)
(2.99993 5.46537e-06 0)
(2.99982 1.75368e-05 0)
(2.99954 3.69558e-05 0)
(2.99889 0.000112157 0)
(2.99722 0.000231592 0)
(2.99321 0.000684933 0)
(2.983 0.0014929 0)
(2.95698 0.0041347 0)
(2.88648 0.0103154 0)
(2.68432 0.0289918 0)
(2.08299 0.0836299 0)
(1.00695 0.23767 0)
(0.445936 0.218142 0)
(0.56394 0.20627 0)
(0.602243 0.213997 0)
(0.547511 0.224554 0)
(0.457887 0.239139 0)
(0.371295 0.253571 0)
(0.298295 0.26863 0)
(0.22259 0.284018 0)
(0.133437 0.297895 0)
(0.0543016 0.304955 0)
(3 1.06159e-07 0)
(2.99999 6.56393e-07 0)
(2.99997 2.29612e-06 0)
(2.99993 6.42513e-06 0)
(2.99983 1.71257e-05 0)
(2.99959 4.28114e-05 0)
(2.99897 0.000109126 0)
(2.99749 0.000267154 0)
(2.99374 0.000676181 0)
(2.98456 0.0016695 0)
(2.96088 0.00424065 0)
(2.89754 0.0110151 0)
(2.71735 0.0302661 0)
(2.18244 0.0875826 0)
(1.08947 0.255958 0)
(0.479792 0.262642 0)
(0.592506 0.256733 0)
(0.632831 0.26481 0)
(0.578346 0.27654 0)
(0.489071 0.294664 0)
(0.40058 0.31364 0)
(0.324943 0.333938 0)
(0.24565 0.355414 0)
(0.15025 0.375941 0)
(0.0619191 0.387672 0)
(3 9.06697e-08 0)
(2.99999 6.65803e-07 0)
(2.99998 2.10406e-06 0)
(2.99994 6.47934e-06 0)
(2.99985 1.56779e-05 0)
(2.99962 4.31904e-05 0)
(2.99908 9.79678e-05 0)
(2.9977 0.00026899 0)
(2.99438 0.000599713 0)
(2.98597 0.00163035 0)
(2.96478 0.00382067 0)
(2.90822 0.010202 0)
(2.74866 0.027171 0)
(2.2783 0.0777987 0)
(1.18814 0.230017 0)
(0.528298 0.295846 0)
(0.624339 0.309513 0)
(0.664622 0.317133 0)
(0.613318 0.329623 0)
(0.527338 0.351711 0)
(0.438413 0.376377 0)
(0.360632 0.403261 0)
(0.277877 0.432812 0)
(0.175254 0.463392 0)
(0.0743963 0.484865 0)
(3 1.00511e-07 0)
(2.99999 5.78467e-07 0)
(2.99998 2.10502e-06 0)
(2.99994 5.62676e-06 0)
(2.99986 1.55702e-05 0)
(2.99966 3.66858e-05 0)
(2.99916 9.93699e-05 0)
(2.99791 0.000222603 0)
(2.99488 0.000605204 0)
(2.98725 0.00137415 0)
(2.96802 0.00361869 0)
(2.91703 0.00892902 0)
(2.77353 0.0241172 0)
(2.35083 0.0672801 0)
(1.29109 0.19863 0)
(0.575103 0.336704 0)
(0.639024 0.37044 0)
(0.678771 0.368916 0)
(0.640227 0.381603 0)
(0.564964 0.408066 0)
(0.480569 0.440462 0)
(0.403997 0.476205 0)
(0.320588 0.516869 0)
(0.212503 0.562976 0)
(0.095568 0.605554 0)
(3 9.77717e-08 0)
(2.99999 5.82341e-07 0)
(2.99998 2.01713e-06 0)
(2.99995 5.69914e-06 0)
(2.99987 1.48727e-05 0)
(2.99969 3.71761e-05 0)
(2.99923 9.44256e-05 0)
(2.99812 0.0002236 0)
(2.99534 0.000581517 0)
(2.98848 0.00135334 0)
(2.97108 0.00352326 0)
(2.92524 0.00870694 0)
(2.79709 0.0233742 0)
(2.42008 0.0650846 0)
(1.42106 0.191935 0)
(0.6558 0.386315 0)
(0.647003 0.418741 0)
(0.677228 0.415025 0)
(0.660442 0.431644 0)
(0.601202 0.461371 0)
(0.526289 0.503085 0)
(0.455209 0.550204 0)
(0.376562 0.605364 0)
(0.270532 0.677078 0)
(0.134071 0.76479 0)
(3 9.96756e-08 0)
(2.99999 5.55487e-07 0)
(2.99998 2.114e-06 0)
(2.99995 5.44898e-06 0)
(2.99989 1.55967e-05 0)
(2.99972 3.66083e-05 0)
(2.99931 9.67375e-05 0)
(2.99832 0.000227856 0)
(2.99582 0.000583994 0)
(2.9897 0.0013993 0)
(2.97415 0.00355667 0)
(2.93352 0.00890327 0)
(2.82053 0.0236428 0)
(2.48998 0.0658976 0)
(1.57475 0.192745 0)
(0.756609 0.434571 0)
(0.654333 0.451087 0)
(0.682466 0.45335 0)
(0.680505 0.476478 0)
(0.637202 0.510436 0)
(0.576901 0.560745 0)
(0.515843 0.620051 0)
(0.452125 0.696667 0)
(0.366606 0.813482 0)
(0.206813 1.02446 0)
(3 9.62198e-08 0)
(2.99999 5.91123e-07 0)
(2.99998 2.09454e-06 0)
(2.99996 5.75158e-06 0)
(2.9999 1.56142e-05 0)
(2.99976 3.8119e-05 0)
(2.99939 9.86639e-05 0)
(2.99852 0.000236971 0)
(2.99631 0.000602 0)
(2.99096 0.00145931 0)
(2.97732 0.00368139 0)
(2.94201 0.0092392 0)
(2.84449 0.0243667 0)
(2.56103 0.0677131 0)
(1.74926 0.196632 0)
(0.876061 0.482953 0)
(0.663711 0.485364 0)
(0.694882 0.48804 0)
(0.705876 0.513027 0)
(0.67654 0.553036 0)
(0.632618 0.609107 0)
(0.590528 0.679953 0)
(0.561401 0.777083 0)
(0.561275 0.925553 0)
(0.603032 1.17649 0)
(3 8.91741e-08 0)
(2.99999 6.42727e-07 0)
(2.99999 2.01606e-06 0)
(2.99997 6.2864e-06 0)
(2.99991 1.50657e-05 0)
(2.99979 4.16399e-05 0)
(2.99948 9.5579e-05 0)
(2.99874 0.000257042 0)
(2.99684 0.000590851 0)
(2.99227 0.00156067 0)
(2.98063 0.0037014 0)
(2.95078 0.00963528 0)
(2.86925 0.0248326 0)
(2.63404 0.0691199 0)
(1.94534 0.199879 0)
(1.01808 0.526052 0)
(0.683939 0.523582 0)
(0.716208 0.524316 0)
(0.738406 0.544343 0)
(0.721747 0.588014 0)
(0.693934 0.647647 0)
(0.674851 0.726173 0)
(0.682185 0.832233 0)
(0.745267 0.978372 0)
(0.900617 1.17041 0)
(3 9.38338e-08 0)
(3 5.93625e-07 0)
(2.99999 2.06325e-06 0)
(2.99997 5.8223e-06 0)
(2.99993 1.53308e-05 0)
(2.99982 3.90276e-05 0)
(2.99957 9.63434e-05 0)
(2.99894 0.000243535 0)
(2.9974 0.000591151 0)
(2.99355 0.00150185 0)
(2.98405 0.00368084 0)
(2.95962 0.00938817 0)
(2.89417 0.0243474 0)
(2.70777 0.0670773 0)
(2.15741 0.19411 0)
(1.19151 0.543819 0)
(0.735486 0.565818 0)
(0.754665 0.570717 0)
(0.781359 0.578256 0)
(0.776092 0.618482 0)
(0.761032 0.678532 0)
(0.762023 0.757095 0)
(0.795365 0.857955 0)
(0.885541 0.980527 0)
(1.06392 1.10173 0)
(3 8.82909e-08 0)
(3 5.02385e-07 0)
(2.99999 1.87266e-06 0)
(2.99998 4.90155e-06 0)
(2.99994 1.38704e-05 0)
(2.99986 3.27323e-05 0)
(2.99965 8.73294e-05 0)
(2.99915 0.000203558 0)
(2.99789 0.000532031 0)
(2.99484 0.00125484 0)
(2.9872 0.0032284 0)
(2.96803 0.00787314 0)
(2.9174 0.0205326 0)
(2.77671 0.0550072 0)
(2.36729 0.157397 0)
(1.41148 0.465008 0)
(0.836934 0.589406 0)
(0.81461 0.614108 0)
(0.83244 0.620329 0)
(0.839069 0.650392 0)
(0.833086 0.704348 0)
(0.84557 0.775506 0)
(0.89256 0.861553 0)
(0.989059 0.956755 0)
(1.15804 1.03437 0)
(3 6.81776e-08 0)
(3 4.42715e-07 0)
(2.99999 1.48688e-06 0)
(2.99998 4.3029e-06 0)
(2.99995 1.10117e-05 0)
(2.99989 2.83179e-05 0)
(2.99971 6.91493e-05 0)
(2.99931 0.000173245 0)
(2.99828 0.000419717 0)
(2.9958 0.00104247 0)
(2.98956 0.00254217 0)
(2.97405 0.00630746 0)
(2.93338 0.0159046 0)
(2.82122 0.0417328 0)
(2.49661 0.115771 0)
(1.62727 0.344308 0)
(0.935253 0.623603 0)
(0.855601 0.65595 0)
(0.872052 0.667815 0)
(0.892005 0.684649 0)
(0.899722 0.727417 0)
(0.920711 0.786967 0)
(0.973248 0.856272 0)
(1.06738 0.927839 0)
(1.21843 0.981144 0)
(3 5.7341e-08 0)
(3 3.84235e-07 0)
(2.99999 1.27756e-06 0)
(2.99998 3.74784e-06 0)
(2.99996 9.485e-06 0)
(2.99991 2.48515e-05 0)
(2.99977 5.92569e-05 0)
(2.99944 0.000152875 0)
(2.99861 0.000358746 0)
(2.99661 0.000924829 0)
(2.99159 0.00218409 0)
(2.97915 0.00558674 0)
(2.94682 0.0137715 0)
(2.85874 0.0362384 0)
(2.60528 0.0994492 0)
(1.88149 0.29014 0)
(1.0853 0.665449 0)
(0.885926 0.691535 0)
(0.899095 0.704135 0)
(0.930012 0.712419 0)
(0.955418 0.745438 0)
(0.985108 0.794162 0)
(1.03972 0.849201 0)
(1.12848 0.9028 0)
(1.26096 0.940892 0)
(3 5.11709e-08 0)
(3 3.34854e-07 0)
(3 1.12638e-06 0)
(2.99999 3.27439e-06 0)
(2.99997 8.38699e-06 0)
(2.99993 2.17279e-05 0)
(2.99982 5.27252e-05 0)
(2.99956 0.00013441 0)
(2.99892 0.000322634 0)
(2.99732 0.000820667 0)
(2.99345 0.00197917 0)
(2.9837 0.00502617 0)
(2.9589 0.0124602 0)
(2.89232 0.0326126 0)
(2.70314 0.0890917 0)
(2.14694 0.257946 0)
(1.28063 0.679942 0)
(0.936823 0.723498 0)
(0.93382 0.732437 0)
(0.966325 0.736111 0)
(1.0049 0.757936 0)
(1.04135 0.797342 0)
(1.09573 0.841784 0)
(1.17784 0.882768 0)
(1.29364 0.910618 0)
(3 4.46592e-08 0)
(3 2.72119e-07 0)
(3 9.54888e-07 0)
(2.99999 2.65634e-06 0)
(2.99998 7.07795e-06 0)
(2.99994 1.75367e-05 0)
(2.99986 4.46259e-05 0)
(2.99967 0.000107722 0)
(2.99918 0.000272935 0)
(2.99799 0.000654217 0)
(2.99509 0.00165915 0)
(2.98788 0.00401698 0)
(2.96983 0.0101725 0)
(2.92259 0.0258718 0)
(2.79249 0.0697608 0)
(2.41594 0.19888 0)
(1.55056 0.575882 0)
(1.04767 0.730717 0)
(0.993949 0.755077 0)
(1.01194 0.763943 0)
(1.0535 0.7736 0)
(1.09477 0.801674 0)
(1.14644 0.83631 0)
(1.22047 0.867692 0)
(1.32128 0.888166 0)
(3 3.44491e-08 0)
(3 2.16804e-07 0)
(3 7.39338e-07 0)
(2.99999 2.11208e-06 0)
(2.99998 5.45989e-06 0)
(2.99996 1.38295e-05 0)
(2.9999 3.43526e-05 0)
(2.99975 8.3655e-05 0)
(2.99937 0.000208781 0)
(2.99848 0.000499152 0)
(2.99625 0.00125492 0)
(2.99079 0.00299825 0)
(2.97712 0.00754701 0)
(2.94183 0.0186857 0)
(2.84558 0.0489973 0)
(2.57044 0.134412 0)
(1.82143 0.399983 0)
(1.16814 0.736049 0)
(1.04279 0.775945 0)
(1.0506 0.793224 0)
(1.09184 0.795576 0)
(1.13994 0.810605 0)
(1.19097 0.835023 0)
(1.25795 0.858143 0)
(1.34605 0.872649 0)
(3 2.66479e-08 0)
(3 1.76783e-07 0)
(3 5.82052e-07 0)
(2.99999 1.72233e-06 0)
(2.99999 4.32147e-06 0)
(2.99997 1.13142e-05 0)
(2.99992 2.72587e-05 0)
(2.99981 6.88065e-05 0)
(2.99953 0.000166508 0)
(2.99886 0.000412529 0)
(2.99718 0.00101272 0)
(2.99312 0.00248287 0)
(2.98289 0.00618034 0)
(2.95693 0.0153752 0)
(2.88713 0.0399489 0)
(2.68959 0.108551 0)
(2.11436 0.316608 0)
(1.34974 0.755188 0)
(1.09244 0.807708 0)
(1.08575 0.820374 0)
(1.12143 0.819039 0)
(1.17552 0.821064 0)
(1.22906 0.836136 0)
(1.29103 0.852566 0)
(1.36881 0.862446 0)
(3 2.09899e-08 0)
(3 1.35803e-07 0)
(3 4.60575e-07 0)
(3 1.32081e-06 0)
(2.99999 3.41203e-06 0)
(2.99998 8.73051e-06 0)
(2.99994 2.13676e-05 0)
(2.99986 5.36727e-05 0)
(2.99966 0.000129349 0)
(2.99918 0.000325297 0)
(2.99798 0.000781785 0)
(2.9951 0.00196701 0)
(2.98786 0.00478143 0)
(2.96992 0.0120463 0)
(2.92293 0.0306504 0)
(2.79431 0.0823846 0)
(2.42094 0.235515 0)
(1.62644 0.65213 0)
(1.1974 0.80975 0)
(1.14175 0.834984 0)
(1.15872 0.841336 0)
(1.20914 0.83591 0)
(1.26493 0.84082 0)
(1.32251 0.850494 0)
(1.3912 0.85632 0)
(3 1.56534e-08 0)
(3 1.02104e-07 0)
(3 3.44751e-07 0)
(3 9.90927e-07 0)
(2.99999 2.5502e-06 0)
(2.99998 6.50814e-06 0)
(2.99996 1.5855e-05 0)
(2.9999 3.98135e-05 0)
(2.99976 9.50316e-05 0)
(2.99941 0.000239669 0)
(2.99855 0.000566725 0)
(2.99646 0.00143312 0)
(2.99128 0.00341588 0)
(2.97848 0.00859327 0)
(2.9455 0.0212606 0)
(2.85672 0.0555701 0)
(2.60411 0.152544 0)
(1.92532 0.449184 0)
(1.32819 0.79717 0)
(1.19503 0.845484 0)
(1.19562 0.864107 0)
(1.2371 0.858809 0)
(1.29463 0.851611 0)
(1.35099 0.852772 0)
(1.41315 0.854312 0)
(3 1.16394e-08 0)
(3 7.83364e-08 0)
(3 2.56983e-07 0)
(3 7.62826e-07 0)
(3 1.90369e-06 0)
(2.99999 5.00647e-06 0)
(2.99997 1.18892e-05 0)
(2.99993 3.04486e-05 0)
(2.99983 7.19852e-05 0)
(2.99958 0.000181846 0)
(2.99897 0.000433866 0)
(2.99747 0.00108423 0)
(2.99383 0.00261992 0)
(2.98476 0.00652515 0)
(2.96186 0.0161303 0)
(2.90109 0.0415874 0)
(2.73166 0.111874 0)
(2.2384 0.325171 0)
(1.5305 0.771983 0)
(1.26106 0.863265 0)
(1.23697 0.882477 0)
(1.26102 0.881477 0)
(1.31531 0.867898 0)
(1.37458 0.860546 0)
(1.43385 0.857103 0)
(3 9.1794e-09 0)
(3 5.5514e-08 0)
(3 1.97536e-07 0)
(3 5.40983e-07 0)
(3 1.45408e-06 0)
(2.99999 3.57216e-06 0)
(2.99998 9.03202e-06 0)
(2.99995 2.1853e-05 0)
(2.99988 5.41965e-05 0)
(2.99971 0.000131575 0)
(2.9993 0.000323421 0)
(2.99828 0.000790235 0)
(2.99582 0.00193443 0)
(2.98973 0.00477364 0)
(2.97467 0.0117687 0)
(2.93578 0.0299083 0)
(2.83116 0.0788602 0)
(2.52934 0.223258 0)
(1.82841 0.620755 0)
(1.37946 0.85425 0)
(1.29433 0.887398 0)
(1.29725 0.898218 0)
(1.33904 0.886512 0)
(1.39662 0.871447 0)
(1.45369 0.863103 0)
(3 6.64652e-09 0)
(3 3.9648e-08 0)
(3 1.42028e-07 0)
(3 3.85413e-07 0)
(3 1.04321e-06 0)
(2.99999 2.53333e-06 0)
(2.99999 6.4814e-06 0)
(2.99997 1.53945e-05 0)
(2.99992 3.87868e-05 0)
(2.9998 9.22573e-05 0)
(2.99952 0.000229669 0)
(2.99882 0.000551986 0)
(2.99714 0.00136098 0)
(2.99295 0.00331047 0)
(2.98276 0.00814734 0)
(2.95669 0.0202685 0)
(2.88777 0.0520645 0)
(2.69465 0.141091 0)
(2.1524 0.411625 0)
(1.54274 0.833333 0)
(1.35099 0.90017 0)
(1.33441 0.913488 0)
(1.35954 0.905984 0)
(1.41359 0.885883 0)
(1.47174 0.871395 0)
(3 4.59401e-09 0)
(3 2.84377e-08 0)
(3 9.8286e-08 0)
(3 2.76124e-07 0)
(3 7.24803e-07 0)
(3 1.79971e-06 0)
(2.99999 4.53582e-06 0)
(2.99998 1.08402e-05 0)
(2.99995 2.73145e-05 0)
(2.99987 6.44521e-05 0)
(2.99968 0.00016286 0)
(2.99922 0.000383353 0)
(2.99812 0.000968125 0)
(2.99538 0.00229542 0)
(2.98878 0.00577376 0)
(2.97222 0.0140143 0)
(2.92968 0.0358844 0)
(2.81514 0.0945097 0)
(2.48311 0.270677 0)
(1.8166 0.697432 0)
(1.45196 0.882263 0)
(1.38728 0.912899 0)
(1.39137 0.919826 0)
(1.43303 0.903603 0)
(1.48923 0.881298 0)
(3 3.00845e-09 0)
(3 1.99574e-08 0)
(3 6.57942e-08 0)
(3 1.93607e-07 0)
(3 4.85822e-07 0)
(3 1.25818e-06 0)
(2.99999 3.02204e-06 0)
(2.99999 7.56245e-06 0)
(2.99996 1.81299e-05 0)
(2.99991 4.46311e-05 0)
(2.99979 0.000108106 0)
(2.99949 0.000262104 0)
(2.99874 0.000643196 0)
(2.99696 0.0015436 0)
(2.99252 0.00382832 0)
(2.98173 0.00923247 0)
(2.95418 0.0231816 0)
(2.8815 0.0592013 0)
(2.67758 0.161322 0)
(2.13019 0.460993 0)
(1.59365 0.847731 0)
(1.44161 0.914816 0)
(1.42638 0.929796 0)
(1.45008 0.922011 0)
(1.50132 0.896994 0)
(3 2.09913e-09 0)
(3 1.32868e-08 0)
(3 4.56552e-08 0)
(3 1.28902e-07 0)
(3 3.3553e-07 0)
(3 8.447e-07 0)
(3 2.06934e-06 0)
(2.99999 5.11665e-06 0)
(2.99998 1.23236e-05 0)
(2.99994 3.0399e-05 0)
(2.99986 7.2991e-05 0)
(2.99967 0.00017981 0)
(2.99918 0.000432195 0)
(2.99804 0.00106367 0)
(2.99518 0.00257194 0)
(2.98831 0.00633058 0)
(2.97107 0.015559 0)
(2.92674 0.0393923 0)
(2.80714 0.104048 0)
(2.46166 0.297039 0)
(1.8432 0.727781 0)
(1.52859 0.898669 0)
(1.47219 0.929651 0)
(1.47624 0.936095 0)
(1.51535 0.918108 0)
(3 1.42981e-09 0)
(3 8.83144e-09 0)
(3 3.08562e-08 0)
(3 8.55801e-08 0)
(3 2.26185e-07 0)
(3 5.60134e-07 0)
(3 1.39471e-06 0)
(2.99999 3.38705e-06 0)
(2.99998 8.28948e-06 0)
(2.99996 2.00995e-05 0)
(2.99991 4.88212e-05 0)
(2.99979 0.000119062 0)
(2.99947 0.000287094 0)
(2.99874 0.000703942 0)
(2.99691 0.00169426 0)
(2.99254 0.00417606 0)
(2.98164 0.0101495 0)
(2.9543 0.0253204 0)
(2.88214 0.0650279 0)
(2.67983 0.177442 0)
(2.15469 0.498689 0)
(1.66736 0.862314 0)
(1.52668 0.930895 0)
(1.50924 0.945826 0)
(1.52854 0.938049 0)
(3 9.16888e-10 0)
(3 5.95266e-09 0)
(3 2.01151e-08 0)
(3 5.75861e-08 0)
(3 1.47723e-07 0)
(3 3.75125e-07 0)
(3 9.1046e-07 0)
(3 2.26348e-06 0)
(2.99999 5.3991e-06 0)
(2.99998 1.34106e-05 0)
(2.99994 3.18093e-05 0)
(2.99986 7.89578e-05 0)
(2.99967 0.000187438 0)
(2.99921 0.000463969 0)
(2.99808 0.00110769 0)
(2.99536 0.00272965 0)
(2.98865 0.00660396 0)
(2.97216 0.0163059 0)
(2.92978 0.0410073 0)
(2.81607 0.108047 0)
(2.49057 0.30735 0)
(1.91389 0.730532 0)
(1.61357 0.908828 0)
(1.5541 0.942546 0)
(1.55343 0.94953 0)
(3 6.27222e-10 0)
(3 3.75867e-09 0)
(3 1.33859e-08 0)
(3 3.64152e-08 0)
(3 9.79894e-08 0)
(3 2.37303e-07 0)
(3 6.04001e-07 0)
(3 1.42659e-06 0)
(2.99999 3.57222e-06 0)
(2.99999 8.44471e-06 0)
(2.99996 2.09361e-05 0)
(2.99992 4.98076e-05 0)
(2.99979 0.000122258 0)
(2.99951 0.000294166 0)
(2.9988 0.000714141 0)
(2.99712 0.00173772 0)
(2.99294 0.00419923 0)
(2.98287 0.010344 0)
(2.95734 0.0254318 0)
(2.89082 0.0653135 0)
(2.7053 0.176816 0)
(2.22451 0.4904 0)
(1.75593 0.864743 0)
(1.60834 0.940179 0)
(1.58586 0.955905 0)
(3 3.95984e-10 0)
(3 2.4334e-09 0)
(3 8.51606e-09 0)
(3 2.35282e-08 0)
(3 6.22906e-08 0)
(3 1.53218e-07 0)
(3 3.8229e-07 0)
(3 9.19476e-07 0)
(3 2.25757e-06 0)
(2.99999 5.42306e-06 0)
(2.99998 1.32078e-05 0)
(2.99995 3.18521e-05 0)
(2.99988 7.70696e-05 0)
(2.9997 0.000187139 0)
(2.99928 0.000449426 0)
(2.99826 0.00109926 0)
(2.99582 0.00263651 0)
(2.98982 0.00647647 0)
(2.9752 0.0157692 0)
(2.93805 0.0396056 0)
(2.83976 0.103517 0)
(2.56041 0.291778 0)
(2.01603 0.701473 0)
(1.70264 0.90393 0)
(1.63385 0.94629 0)
(3 2.40384e-10 0)
(3 1.55297e-09 0)
(3 5.2325e-09 0)
(3 1.50005e-08 0)
(3 3.82427e-08 0)
(3 9.72114e-08 0)
(3 2.34192e-07 0)
(3 5.8032e-07 0)
(3 1.3825e-06 0)
(2.99999 3.39586e-06 0)
(2.99999 8.08194e-06 0)
(2.99997 1.97693e-05 0)
(2.99992 4.7173e-05 0)
(2.99982 0.000114726 0)
(2.99956 0.000274872 0)
(2.99894 0.000666219 0)
(2.99742 0.00160272 0)
(2.9938 0.00388006 0)
(2.98483 0.00941311 0)
(2.96268 0.0231094 0)
(2.9051 0.0583116 0)
(2.74719 0.155656 0)
(2.32661 0.429043 0)
(1.856 0.826498 0)
(1.68903 0.930012 0)
(3 1.54292e-10 0)
(3 9.41238e-10 0)
(3 3.32196e-09 0)
(3 9.09799e-09 0)
(3 2.4226e-08 0)
(3 5.9212e-08 0)
(3 1.47757e-07 0)
(3 3.55207e-07 0)
(3 8.65667e-07 0)
(3 2.09054e-06 0)
(2.99999 5.02455e-06 0)
(2.99998 1.2259e-05 0)
(2.99995 2.91142e-05 0)
(2.99989 7.16397e-05 0)
(2.99974 0.000169163 0)
(2.99937 0.00041799 0)
(2.99849 0.000985791 0)
(2.99633 0.0024399 0)
(2.9912 0.00580636 0)
(2.97846 0.0143903 0)
(2.94662 0.0354288 0)
(2.86317 0.0920074 0)
(2.62668 0.254247 0)
(2.12616 0.640455 0)
(1.79234 0.89013 0)
(3 9.16404e-11 0)
(3 5.91722e-10 0)
(3 1.98894e-09 0)
(3 5.70916e-09 0)
(3 1.45491e-08 0)
(3 3.68146e-08 0)
(3 8.91084e-08 0)
(3 2.18811e-07 0)
(3 5.24083e-07 0)
(3 1.27514e-06 0)
(3 3.05824e-06 0)
(2.99999 7.38692e-06 0)
(2.99997 1.77711e-05 0)
(2.99993 4.27478e-05 0)
(2.99984 0.000103397 0)
(2.99962 0.0002468 0)
(2.9991 0.000601148 0)
(2.99782 0.0014306 0)
(2.99479 0.00349362 0)
(2.98727 0.00838638 0)
(2.96894 0.0205939 0)
(2.92183 0.0515157 0)
(2.79486 0.135579 0)
(2.4482 0.376468 0)
(1.97948 0.777333 0)
(3 5.57239e-11 0)
(3 3.5961e-10 0)
(3 1.21072e-09 0)
(3 3.4703e-09 0)
(3 8.83209e-09 0)
(3 2.24205e-08 0)
(3 5.39685e-08 0)
(3 1.33314e-07 0)
(3 3.1745e-07 0)
(3 7.76694e-07 0)
(3 1.84974e-06 0)
(2.99999 4.5005e-06 0)
(2.99998 1.0761e-05 0)
(2.99996 2.60311e-05 0)
(2.99991 6.26377e-05 0)
(2.99978 0.000150409 0)
(2.99948 0.000364841 0)
(2.99873 0.000871302 0)
(2.99699 0.00212552 0)
(2.99268 0.00509156 0)
(2.98234 0.0124843 0)
(2.95633 0.0306476 0)
(2.88922 0.0783276 0)
(2.70186 0.21286 0)
(2.26461 0.554618 0)
(3 3.36879e-11 0)
(3 2.14186e-10 0)
(3 7.25096e-10 0)
(3 2.06756e-09 0)
(3 5.28018e-09 0)
(3 1.33114e-08 0)
(3 3.22986e-08 0)
(3 7.87696e-08 0)
(3 1.90089e-07 0)
(3 4.56392e-07 0)
(3 1.10667e-06 0)
(3 2.63524e-06 0)
(2.99999 6.42545e-06 0)
(2.99998 1.5194e-05 0)
(2.99995 3.71999e-05 0)
(2.99987 8.77868e-05 0)
(2.9997 0.000215002 0)
(2.99928 0.000507849 0)
(2.9983 0.00124188 0)
(2.9959 0.00295359 0)
(2.99018 0.00720629 0)
(2.97612 0.0174487 0)
(2.94107 0.04343 0)
(2.84884 0.112758 0)
(2.59307 0.311937 0)
(3 1.97884e-11 0)
(3 1.26906e-10 0)
(3 4.26872e-10 0)
(3 1.22286e-09 0)
(3 3.10734e-09 0)
(3 7.85234e-09 0)
(3 1.89796e-08 0)
(3 4.62759e-08 0)
(3 1.11522e-07 0)
(3 2.66897e-07 0)
(3 6.47733e-07 0)
(3 1.53222e-06 0)
(2.99999 3.7469e-06 0)
(2.99999 8.78956e-06 0)
(2.99997 2.15805e-05 0)
(2.99993 5.04791e-05 0)
(2.99983 0.000123875 0)
(2.99959 0.000290398 0)
(2.99903 0.000708496 0)
(2.99764 0.00167424 0)
(2.99439 0.00406277 0)
(2.98636 0.0097143 0)
(2.96683 0.0237397 0)
(2.9168 0.0591178 0)
(2.78158 0.156081 0)
(3 1.15633e-11 0)
(3 7.36553e-11 0)
(3 2.5132e-10 0)
(3 7.09426e-10 0)
(3 1.8253e-09 0)
(3 4.5736e-09 0)
(3 1.10612e-08 0)
(3 2.70869e-08 0)
(3 6.44256e-08 0)
(3 1.57102e-07 0)
(3 3.71725e-07 0)
(3 9.04119e-07 0)
(3 2.1435e-06 0)
(2.99999 5.19189e-06 0)
(2.99998 1.23541e-05 0)
(2.99996 2.97658e-05 0)
(2.9999 7.12355e-05 0)
(2.99977 0.000170559 0)
(2.99945 0.000410957 0)
(2.99869 0.000978781 0)
(2.99688 0.00237349 0)
(2.99248 0.00566928 0)
(2.98187 0.013833 0)
(2.95549 0.03386 0)
(2.88749 0.0862711 0)
(3 6.69443e-12 0)
(3 4.21195e-11 0)
(3 1.44753e-10 0)
(3 4.053e-10 0)
(3 1.05118e-09 0)
(3 2.60407e-09 0)
(3 6.37044e-09 0)
(3 1.53865e-08 0)
(3 3.6958e-08 0)
(3 8.91731e-08 0)
(3 2.12044e-07 0)
(3 5.13541e-07 0)
(3 1.21392e-06 0)
(3 2.94828e-06 0)
(2.99999 6.95886e-06 0)
(2.99998 1.68792e-05 0)
(2.99995 3.98964e-05 0)
(2.99987 9.65782e-05 0)
(2.9997 0.000229078 0)
(2.99928 0.000551655 0)
(2.9983 0.00131689 0)
(2.9959 0.00316338 0)
(2.99026 0.00760976 0)
(2.97635 0.0184508 0)
(2.94199 0.0455832 0)
(3 3.72604e-12 0)
(3 2.43242e-11 0)
(3 8.11556e-11 0)
(3 2.33819e-10 0)
(3 5.89664e-10 0)
(3 1.49746e-09 0)
(3 3.5704e-09 0)
(3 8.80366e-09 0)
(3 2.07464e-08 0)
(3 5.0584e-08 0)
(3 1.1937e-07 0)
(3 2.88584e-07 0)
(3 6.85039e-07 0)
(3 1.64079e-06 0)
(2.99999 3.92526e-06 0)
(2.99999 9.3211e-06 0)
(2.99997 2.24518e-05 0)
(2.99993 5.28998e-05 0)
(2.99983 0.000128231 0)
(2.9996 0.000300455 0)
(2.99906 0.000730234 0)
(2.99772 0.0017112 0)
(2.9946 0.00415998 0)
(2.98692 0.00984686 0)
(2.96836 0.0240572 0)
(3 2.10761e-12 0)
(3 1.34932e-11 0)
(3 4.591e-11 0)
(3 1.29458e-10 0)
(3 3.33249e-10 0)
(3 8.31541e-10 0)
(3 2.00458e-09 0)
(3 4.90443e-09 0)
(3 1.15456e-08 0)
(3 2.82709e-08 0)
(3 6.597e-08 0)
(3 1.61284e-07 0)
(3 3.77134e-07 0)
(3 9.16728e-07 0)
(3 2.15478e-06 0)
(2.99999 5.20072e-06 0)
(2.99998 1.23188e-05 0)
(2.99996 2.94559e-05 0)
(2.99991 7.04496e-05 0)
(2.99978 0.000166767 0)
(2.99948 0.000402873 0)
(2.99876 0.000946876 0)
(2.99703 0.00230363 0)
(2.99289 0.00542477 0)
(2.98293 0.0132727 0)
(3 1.19335e-12 0)
(3 7.25819e-12 0)
(3 2.53066e-11 0)
(3 6.94966e-11 0)
(3 1.82744e-10 0)
(3 4.44985e-10 0)
(3 1.096e-09 0)
(3 2.61309e-09 0)
(3 6.28039e-09 0)
(3 1.50022e-08 0)
(3 3.55683e-08 0)
(3 8.55837e-08 0)
(3 2.00534e-07 0)
(3 4.86549e-07 0)
(3 1.13212e-06 0)
(3 2.75447e-06 0)
(2.99999 6.39862e-06 0)
(2.99998 1.55363e-05 0)
(2.99995 3.62678e-05 0)
(2.99988 8.73541e-05 0)
(2.99971 0.000205581 0)
(2.9993 0.000490783 0)
(2.99833 0.00116686 0)
(2.99605 0.00276369 0)
(2.99048 0.00664919 0)
(3 6.17944e-13 0)
(3 3.80953e-12 0)
(3 1.30181e-11 0)
(3 3.65733e-11 0)
(3 9.36436e-11 0)
(3 2.3153e-10 0)
(3 5.62219e-10 0)
(3 1.33401e-09 0)
(3 3.22819e-09 0)
(3 7.49306e-09 0)
(3 1.82372e-08 0)
(3 4.18882e-08 0)
(3 1.02124e-07 0)
(3 2.33684e-07 0)
(3 5.68194e-07 0)
(3 1.30161e-06 0)
(2.99999 3.14262e-06 0)
(2.99999 7.2412e-06 0)
(2.99997 1.72638e-05 0)
(2.99992 4.01405e-05 0)
(2.99981 9.43197e-05 0)
(2.99956 0.000221771 0)
(2.99893 0.000511562 0)
(2.99746 0.00121859 0)
(2.99382 0.00277824 0)
(3 2.8904e-13 0)
(3 1.89692e-12 0)
(3 6.37901e-12 0)
(3 1.83098e-11 0)
(3 4.58416e-11 0)
(3 1.14739e-10 0)
(3 2.72665e-10 0)
(3 6.51589e-10 0)
(3 1.54609e-09 0)
(3 3.59012e-09 0)
(3 8.61018e-09 0)
(3 1.95901e-08 0)
(3 4.75026e-08 0)
(3 1.06359e-07 0)
(3 2.58872e-07 0)
(3 5.77164e-07 0)
(3 1.39428e-06 0)
(2.99999 3.11131e-06 0)
(2.99998 7.41997e-06 0)
(2.99994 1.66681e-05 0)
(2.99986 3.88517e-05 0)
(2.99965 8.84087e-05 0)
(2.99916 0.000200001 0)
(2.99794 0.000461767 0)
(2.995 0.00101349 0)
(3 1.38813e-13 0)
(3 8.53542e-13 0)
(3 3.13309e-12 0)
(3 8.31662e-12 0)
(3 2.20962e-11 0)
(3 5.24101e-11 0)
(3 1.28519e-10 0)
(3 2.9748e-10 0)
(3 7.06311e-10 0)
(3 1.63913e-09 0)
(3 3.80861e-09 0)
(3 8.90024e-09 0)
(3 2.03105e-08 0)
(3 4.78989e-08 0)
(3 1.07425e-07 0)
(3 2.54116e-07 0)
(3 5.6484e-07 0)
(2.99999 1.33509e-06 0)
(2.99998 2.92536e-06 0)
(2.99995 6.92178e-06 0)
(2.99987 1.50196e-05 0)
(2.99969 3.52553e-05 0)
(2.99924 7.56203e-05 0)
(2.99813 0.000176955 0)
(2.9954 0.000376872 0)
(3 7.73227e-14 0)
(3 4.11317e-13 0)
(3 1.39181e-12 0)
(3 3.69229e-12 0)
(3 9.64877e-12 0)
(3 2.28429e-11 0)
(3 5.55231e-11 0)
(3 1.27312e-10 0)
(3 3.01657e-10 0)
(3 6.82708e-10 0)
(3 1.60002e-09 0)
(3 3.59495e-09 0)
(3 8.35576e-09 0)
(3 1.87565e-08 0)
(3 4.29785e-08 0)
(3 9.67491e-08 0)
(3 2.1921e-07 0)
(2.99999 4.93333e-07 0)
(2.99998 1.10186e-06 0)
(2.99995 2.48738e-06 0)
(2.99988 5.51912e-06 0)
(2.9997 1.23675e-05 0)
(2.99927 2.72674e-05 0)
(2.99819 6.10161e-05 0)
(2.99557 0.000133512 0)
(3 1.22195e-14 0)
(3 2.17478e-13 0)
(3 5.08911e-13 0)
(3 1.80295e-12 0)
(3 3.56754e-12 0)
(3 1.091e-11 0)
(3 1.93277e-11 0)
(3 6.097e-11 0)
(3 1.00922e-10 0)
(3 3.2607e-10 0)
(3 5.19276e-10 0)
(3 1.68796e-09 0)
(3 2.70085e-09 0)
(3 8.37514e-09 0)
(3 1.46323e-08 0)
(3 4.00719e-08 0)
(3 8.02357e-08 0)
(2.99999 1.8154e-07 0)
(2.99998 4.65301e-07 0)
(2.99995 7.34996e-07 0)
(2.99988 2.69167e-06 0)
(2.99971 2.68602e-06 0)
(2.99928 1.53205e-05 0)
(2.99822 7.77025e-06 0)
(2.99559 7.94043e-05 0)
(3 1.57329e-14 0)
(3 3.61934e-14 0)
(3 2.6009e-13 0)
(3 4.51861e-13 0)
(3 1.85497e-12 0)
(3 3.19299e-12 0)
(3 9.6787e-12 0)
(3 2.01528e-11 0)
(3 4.54193e-11 0)
(3 1.26233e-10 0)
(3 1.86382e-10 0)
(3 7.84083e-10 0)
(3 6.65553e-10 0)
(3 4.72954e-09 0)
(3 1.94989e-09 0)
(3 2.68336e-08 0)
(3 4.68471e-09 0)
(2.99999 1.43273e-07 0)
(2.99998 1.42176e-08 0)
(2.99995 6.90723e-07 0)
(2.99988 1.01985e-07 0)
(2.99971 3.17076e-06 0)
(2.99928 9.39713e-07 0)
(2.99824 1.24309e-05 0)
(2.99559 1.18811e-05 0)
(3 2.70894e-14 0)
(3 -5.45596e-15 0)
(3 1.15578e-13 0)
(3 -2.12758e-14 0)
(3 7.44939e-13 0)
(3 9.49627e-14 0)
(3 4.22202e-12 0)
(3 1.80708e-12 0)
(3 2.06982e-11 0)
(3 2.10093e-11 0)
(3 7.88103e-11 0)
(3 1.86881e-10 0)
(3 2.40424e-10 0)
(3 1.45339e-09 0)
(3 -1.21152e-10 0)
(3 1.02961e-08 0)
(3 -7.55438e-09 0)
(2.99999 6.47812e-08 0)
(2.99998 -7.67205e-08 0)
(2.99995 3.96644e-07 0)
(2.99988 -5.89809e-07 0)
(2.99971 2.24881e-06 0)
(2.99929 -3.42941e-06 0)
(2.99823 1.09158e-05 0)
(2.99562 -1.4847e-05 0)
(1.27773 1.08147 0)
(1.68901 0.881441 0)
(1.8708 0.61718 0)
(1.89442 0.355622 0)
(1.83901 0.137603 0)
(1.73191 -0.00954323 0)
(1.60568 -0.046926 0)
(1.50166 -0.00256382 0)
(1.38807 0.0580297 0)
(1.17605 0.109394 0)
(0.771186 0.14764 0)
(0.367897 0.174522 0)
(0.136592 0.159113 0)
(-0.0412282 0.124967 0)
(-0.260712 0.0907064 0)
(-0.418913 0.0455515 0)
(-0.555508 0.0152405 0)
(-0.662921 -0.00351697 0)
(-0.73185 -0.00879597 0)
(-0.773863 -0.00147514 0)
(-0.808844 0.00678141 0)
(-0.845967 0.0123474 0)
(-0.884961 0.0139444 0)
(-0.92256 0.0112267 0)
(-0.95885 0.00686648 0)
(-0.990353 0.00457561 0)
(-1.0109 0.00284412 0)
(-1.02173 0.000895201 0)
(-1.02411 -0.00107146 0)
(-1.01013 -0.00328153 0)
(-0.972541 -0.00739729 0)
(-0.913271 -0.0129163 0)
(-0.83676 -0.0183727 0)
(-0.7484 -0.0235067 0)
(-0.655563 -0.0268478 0)
(-0.563191 -0.0288775 0)
(-0.473839 -0.0306736 0)
(-0.388455 -0.032546 0)
(-0.30492 -0.0356657 0)
(-0.226561 -0.0364628 0)
(-0.151909 -0.0366779 0)
(-0.0810744 -0.0383343 0)
(-0.0110876 -0.0411068 0)
(0.0611536 -0.0354157 0)
(0.120563 -0.0315322 0)
(0.179114 -0.0297827 0)
(0.233956 -0.0283693 0)
(0.285267 -0.0268263 0)
(0.332816 -0.0252174 0)
(0.379038 -0.0242685 0)
(0.426646 -0.0242661 0)
(0.473372 -0.0234299 0)
(0.517711 -0.0223344 0)
(0.559959 -0.0212216 0)
(0.600675 -0.0202607 0)
(0.639998 -0.0193544 0)
(0.678089 -0.0185176 0)
(0.714985 -0.0176846 0)
(0.75079 -0.016898 0)
(0.78554 -0.0161103 0)
(0.81933 -0.0153714 0)
(0.85218 -0.014636 0)
(0.884176 -0.0139466 0)
(0.915337 -0.0132656 0)
(0.945733 -0.0126294 0)
(0.975372 -0.0120077 0)
(1.00431 -0.0114277 0)
(1.03254 -0.0108607 0)
(1.06012 -0.0103248 0)
(1.08705 -0.00979936 0)
(1.11337 -0.00929944 0)
(1.13911 -0.00880755 0)
(1.16428 -0.00833648 0)
(1.18891 -0.0078716 0)
(1.21303 -0.00742374 0)
(1.23665 -0.00698179 0)
(1.25978 -0.0065551 0)
(1.28244 -0.00613582 0)
(1.30464 -0.00573236 0)
(1.32637 -0.00533904 0)
(1.34767 -0.00496335 0)
(1.36851 -0.00460034 0)
(1.38892 -0.00425666 0)
(1.4089 -0.00392795 0)
(1.42846 -0.00361885 0)
(1.4476 -0.00332637 0)
(1.46634 -0.00305406 0)
(1.48467 -0.00280055 0)
(1.50259 -0.00256972 0)
(1.5201 -0.00236427 0)
(1.53717 -0.00218631 0)
(1.55378 -0.00203681 0)
(1.56987 -0.00191743 0)
(1.58537 -0.00182856 0)
(1.60014 -0.00176968 0)
(1.61399 -0.001736 0)
(1.62657 -0.00171436 0)
(1.63742 -0.00169582 0)
(1.64522 -0.00159272 0)
(1.65258 -0.0016529 0)
(1.37159 0.992702 0)
(1.68472 0.710002 0)
(1.85758 0.397397 0)
(1.94051 0.131454 0)
(1.98528 -0.0583778 0)
(2.00406 -0.156879 0)
(1.99924 -0.165497 0)
(1.96835 -0.114333 0)
(1.8807 -0.0406863 0)
(1.67392 0.0494219 0)
(1.32334 0.156284 0)
(0.971643 0.238769 0)
(0.753153 0.242217 0)
(0.605935 0.228235 0)
(0.461593 0.218763 0)
(0.330505 0.197554 0)
(0.209189 0.169708 0)
(0.083278 0.138806 0)
(-0.0603386 0.098588 0)