/*--------------------------------*- C++ -*----------------------------------*\
  =========                 |
  \\      /  F ield         | OpenFOAM: The Open Source CFD Toolbox
   \\    /   O peration     | Website:  https://openfoam.org
    \\  /    A nd           | Version:  13
     \\/     M anipulation  |
\*---------------------------------------------------------------------------*/
FoamFile
{
    format      ascii;
    class       volScalarField;
    location    "3";
    object      p;
}
// * * * * * * * * * * * * * * * * * * * * * * * * * * * * * * * * * * * * * //

dimensions      [1 -1 -2 0 0 0 0];

internalField   nonuniform List<scalar> 
5250
(
1.00001
1.00003
1.00009
1.0002
1.00056
1.00126
1.00342
1.00776
1.0206
1.04842
1.12515
1.3171
1.86216
3.45048
8.0785
11.6432
11.2638
11.0293
11.1116
11.3366
11.5599
11.6942
11.7939
11.8721
11.9291
1.00001
1.00003
1.00008
1.00021
1.00053
1.00131
1.0032
1.00806
1.01938
1.04912
1.12114
1.31391
1.84485
3.40721
7.96319
11.6566
11.2636
11.0197
11.103
11.3289
11.552
11.6868
11.788
11.8674
11.9258
1
1.00003
1.00008
1.00021
1.00049
1.00132
1.00299
1.008
1.01836
1.04809
1.11607
1.30349
1.81219
3.31113
7.70511
11.6839
11.2595
10.9898
11.0716
11.2952
11.5163
11.6495
11.7503
11.8298
11.8896
1
1.00003
1.00008
1.00019
1.0005
1.00116
1.00303
1.00718
1.0181
1.04441
1.11135
1.28494
1.76508
3.16706
7.30639
11.7249
11.2543
10.9404
11.0176
11.2348
11.4529
11.5828
11.6811
11.7596
11.8219
1
1.00002
1.00007
1.00017
1.00047
1.00107
1.00286
1.00649
1.01735
1.04022
1.1048
1.26156
1.70552
2.9816
6.7796
11.7656
11.2482
10.8742
10.9435
11.1492
11.3638
11.489
11.5831
11.6596
11.7255
1
1.00002
1.00006
1.00017
1.0004
1.00106
1.00242
1.00643
1.01471
1.03881
1.09224
1.24076
1.63137
2.77237
6.14717
11.7592
11.232
10.7929
10.8499
11.0365
11.2446
11.3614
11.4466
11.5172
11.5864
1
1.00002
1.00006
1.00015
1.00038
1.00091
1.00232
1.00546
1.01415
1.03338
1.0856
1.21285
1.56482
2.56222
5.51571
11.6296
11.1668
10.6908
10.7342
10.8931
11.0885
11.191
11.26
11.3158
11.383
1
1.00002
1.00005
1.00013
1.00035
1.0008
1.00215
1.00488
1.013
1.03005
1.07807
1.19215
1.50928
2.40322
5.06206
11.2096
10.9812
10.5734
10.5972
10.7143
10.8865
10.966
11.0061
11.0281
11.0735
1
1.00002
1.00005
1.00013
1.00029
1.00079
1.00179
1.00478
1.01097
1.02861
1.0684
1.17601
1.45489
2.25599
4.6159
10.5064
10.6862
10.4976
10.4496
10.5093
10.6354
10.6771
10.6668
10.6158
10.5711
1
1.00002
1.00004
1.00011
1.00026
1.0007
1.00162
1.00423
1.00995
1.02528
1.06168
1.15628
1.40427
2.10722
4.17001
9.62688
10.5236
10.3968
10.2697
10.2903
10.3419
10.325
10.2354
10.0155
9.68301
1
1.00001
1.00004
1.0001
1.00024
1.0006
1.00147
1.00359
1.00902
1.02174
1.05487
1.13596
1.35294
1.95564
3.72077
8.58841
10.411
10.2983
10.084
10.0507
10.0253
9.93092
9.67378
9.07451
7.52305
1
1.00001
1.00003
1.00009
1.0002
1.00053
1.00121
1.00323
1.00731
1.01955
1.04533
1.11815
1.2963
1.80341
3.25806
7.39232
10.3273
10.2005
9.91792
9.80397
9.71414
9.519
9.1041
8.2758
6.63302
1
1.00001
1.00003
1.00007
1.00018
1.00041
1.00109
1.00248
1.00659
1.01507
1.03967
1.09431
1.24586
1.64416
2.79711
6.08808
10.2204
10.0957
9.7771
9.5636
9.40676
9.12877
8.61272
7.75433
6.41525
1
1.00001
1.00002
1.00006
1.00014
1.00035
1.00083
1.00215
1.00495
1.01299
1.03017
1.07777
1.19102
1.50249
2.36254
4.79892
9.91141
9.89643
9.66573
9.34345
9.11335
8.78824
8.25447
7.45816
6.38575
1
1.00001
1.00002
1.00004
1.00012
1.00027
1.00072
1.00163
1.00434
1.0099
1.02585
1.06134
1.15728
1.40194
2.09394
4.07125
9.02462
9.62177
9.46809
9.14032
8.8523
8.50363
7.99149
7.27822
6.38348
1
1
1.00001
1.00004
1.00009
1.00022
1.00058
1.00131
1.0035
1.00791
1.02107
1.04888
1.12695
1.31884
1.86285
3.40511
7.54835
9.34435
9.25106
8.98535
8.63619
8.269
7.78691
7.14999
6.37909
1
1
1.00001
1.00003
1.00008
1.00017
1.00046
1.00103
1.00275
1.00621
1.01646
1.03829
1.09873
1.2457
1.65436
2.80007
5.98789
9.15399
9.10738
8.88243
8.47045
8.07841
7.62101
7.04813
6.37166
1
1
1.00001
1.00002
1.00006
1.00013
1.00033
1.00082
1.00197
1.00496
1.01171
1.02979
1.07142
1.18168
1.46498
2.24904
4.37388
8.73758
8.97034
8.7867
8.37307
7.93269
7.48579
6.96424
6.36271
1
1
1.00001
1.00002
1.00004
1.0001
1.00026
1.0006
1.00156
1.00361
1.00927
1.022
1.05526
1.13626
1.35007
1.93415
3.56956
7.66909
8.71897
8.5996
8.27667
7.81361
7.37278
6.89239
6.35216
1
1
1
1.00001
1.00003
1.00008
1.00018
1.00048
1.00112
1.00279
1.00683
1.01658
1.04134
1.10144
1.25869
1.67957
2.86113
6.02621
8.4482
8.40654
8.19008
7.73833
7.28467
6.83104
6.34046
1
1
1
1.00001
1.00002
1.00006
1.00014
1.00034
1.00079
1.00207
1.0047
1.01235
1.02835
1.07332
1.1773
1.46248
2.21785
4.22508
7.99063
8.27067
8.11058
7.71894
7.23026
6.78458
6.33132
1
1
1
1.00001
1.00002
1.00004
1.0001
1.00023
1.00062
1.00138
1.00367
1.00825
1.02176
1.05048
1.12971
1.32378
1.85995
3.31543
6.89428
8.04265
7.95225
7.67751
7.20426
6.75595
6.32732
1
1
1
1
1.00001
1.00003
1.00007
1.00018
1.0004
1.00106
1.00243
1.00623
1.01476
1.03685
1.0902
1.22752
1.59133
2.58545
5.20046
7.70623
7.73874
7.59061
7.21834
6.75714
6.33011
1
1
1
1
1.00001
1.00002
1.00005
1.00012
1.00028
1.00071
1.00171
1.00414
1.01027
1.02451
1.06122
1.14964
1.38226
1.99257
3.58327
6.99484
7.60264
7.50129
7.21696
6.77241
6.34205
1
1
1
1
1.00001
1.00001
1.00003
1.00008
1.00019
1.0005
1.00113
1.00294
1.00679
1.0172
1.04113
1.1026
1.25634
1.66617
2.76545
5.53407
7.34968
7.33876
7.19304
6.83065
6.37304
1
1
1
1
1
1.00001
1.00002
1.00005
1.00013
1.00033
1.00075
1.00194
1.00441
1.01149
1.02623
1.06753
1.16129
1.41552
2.06372
3.69862
6.81421
7.23766
7.14041
6.87927
6.4353
1
1
1
1
1
1.00001
1.00002
1.00003
1.00009
1.0002
1.00053
1.00121
1.00311
1.00727
1.01808
1.04375
1.10778
1.27026
1.69653
2.82492
5.58784
7.01603
7.00797
6.86982
6.54167
1
1
1
1
1
1
1.00001
1.00002
1.00006
1.00014
1.00034
1.00078
1.00203
1.00459
1.01195
1.02724
1.07017
1.16726
1.43113
2.10022
3.78019
6.50784
6.89827
6.82005
6.59552
1
1
1
1
1
1
1.00001
1.00001
1.00004
1.00009
1.00022
1.0005
1.0013
1.00298
1.00757
1.01778
1.04414
1.10714
1.26871
1.68664
2.76905
5.3511
6.66611
6.68733
6.57921
1
1
1
1
1
1
1
1.00001
1.00002
1.00006
1.00014
1.00032
1.00081
1.00185
1.00479
1.01078
1.02809
1.06453
1.1648
1.40602
2.03777
3.57017
6.13515
6.57539
6.52296
1
1
1
1
1
1
1
1.00001
1.00001
1.00003
1.00009
1.0002
1.00051
1.00115
1.003
1.00672
1.01749
1.04004
1.10199
1.24712
1.63429
2.60918
4.94389
6.32331
6.40424
1
1
1
1
1
1
1
1
1.00001
1.00002
1.00005
1.00013
1.00029
1.00074
1.00168
1.00435
1.00976
1.0253
1.05785
1.14666
1.35729
1.89794
3.17261
5.74019
6.28498
1
1
1
1
1
1
1
1
1.00001
1.00001
1.00003
1.00007
1.00019
1.00043
1.0011
1.0025
1.00634
1.01477
1.03651
1.08808
1.21796
1.54886
2.38786
4.42608
5.97267
1
1
1
1
1
1
1
1
1
1.00001
1.00002
1.00005
1.00011
1.00027
1.00062
1.00153
1.00369
1.00871
1.0216
1.05084
1.12606
1.30836
1.77077
2.87831
5.23825
1
1
1
1
1
1
1
1
1
1
1.00001
1.00003
1.00006
1.00016
1.00036
1.00094
1.0021
1.00538
1.01231
1.03076
1.07302
1.18055
1.44757
2.11667
3.71582
1
1
1
1
1
1
1
1
1
1
1.00001
1.00002
1.00004
1.00009
1.00022
1.00053
1.00124
1.00311
1.00704
1.01804
1.04116
1.10396
1.24939
1.62464
2.52737
1
1
1
1
1
1
1
1
1
1
1
1.00001
1.00002
1.00005
1.00013
1.00029
1.00074
1.00165
1.00424
1.00944
1.02421
1.05506
1.13828
1.33084
1.81031
1
1
1
1
1
1
1
1
1
1
1
1.00001
1.00001
1.00003
1.00007
1.00018
1.00039
1.00101
1.00226
1.00576
1.01319
1.03264
1.07758
1.19022
1.46859
1
1
1
1
1
1
1
1
1
1
1
1
1.00001
1.00002
1.00004
1.0001
1.00022
1.00055
1.00131
1.00308
1.00761
1.01754
1.04377
1.10247
1.25428
1
1
1
1
1
1
1
1
1
1
1
1
1
1.00001
1.00002
1.00005
1.00012
1.0003
1.00071
1.00169
1.00411
1.00948
1.02361
1.05424
1.13455
1
1
1
1
1
1
1
1
1
1
1
1
1
1.00001
1.00001
1.00003
1.00007
1.00016
1.00041
1.00091
1.00232
1.0052
1.01312
1.03007
1.07421
1
1
1
1
1
1
1
1
1
1
1
1
1
1
1.00001
1.00002
1.00004
1.00009
1.00021
1.00051
1.00121
1.00287
1.007
1.01614
1.03999
1
1
1
1
1
1
1
1
1
1
1
1
1
1
1
1.00001
1.00002
1.00005
1.00011
1.00028
1.00062
1.00159
1.00351
1.00891
1.02006
1
1
1
1
1
1
1
1
1
1
1
1
1
1
1
1
1.00001
1.00002
1.00006
1.00014
1.00035
1.00081
1.00193
1.00463
1.01071
1
1
1
1
1
1
1
1
1
1
1
1
1
1
1
1
1.00001
1.00001
1.00003
1.00007
1.00019
1.00042
1.00105
1.00239
1.00581
1
1
1
1
1
1
1
1
1
1
1
1
1
1
1
1
1
1.00001
1.00002
1.00004
1.0001
1.00023
1.00055
1.00128
1.00314
1
1
1
1
1
1
1
1
1
1
1
1
1
1
1
1
1
1
1.00001
1.00002
1.00005
1.00013
1.0003
1.00076
1.0017
1
1
1
1
1
1
1
1
1
1
1
1
1
1
1
1
1
1
1.00001
1.00002
1.00004
1.00009
1.00021
1.00052
1.00125
1
1
1
1
1
1
1
1
1
1
1
1
1
1
1
1
1
1
1.00001
1.00001
1.00003
1.00007
1.00017
1.00044
1.00101
1
1
1
1
1
1
1
1
1
1
1
1
1
1
1
1
1
1
1
1.00001
1.00003
1.00007
1.00016
1.00042
1.00095
3.03443
1.53815
1.04232
0.943539
0.970004
1.05227
1.22517
1.36218
1.40443
1.4026
1.3966
1.39278
1.39385
1.39752
1.40549
1.41439
1.41902
1.41975
1.41974
1.41994
1.42084
1.42342
1.42976
1.44429
1.47666
1.54817
1.70616
2.05877
2.81134
3.54531
3.57079
3.592
3.55278
3.5379
3.53624
3.56237
3.61415
3.69807
3.81902
3.9719
4.12484
4.26064
4.37233
4.45991
4.53356
4.58664
4.61635
4.63191
4.63522
4.63172
4.61995
4.59679
4.56827
4.53678
4.50185
4.4649
4.42536
4.38437
4.34132
4.29712
4.25129
4.20458
4.15663
4.10799
4.05837
4.0082
3.95728
3.90602
3.85432
3.80256
3.75071
3.69907
3.64758
3.59644
3.54557
3.49508
3.44491
3.39513
3.34573
3.29677
3.24827
3.20026
3.15282
3.10593
3.05971
3.01409
2.9692
2.92493
2.88139
2.83842
2.79623
2.75464
2.71384
2.67365
2.63456
2.59656
2.56029
2.52678
2.49792
2.48114
3.73589
2.34447
1.74944
1.49758
1.38013
1.29619
1.27678
1.28486
1.30763
1.35452
1.3999
1.41812
1.41766
1.41578
1.41186
1.41206
1.41305
1.4155
1.41956
1.42246
1.4237
1.42595
1.43091
1.44226
1.46822
1.52721
1.66042
1.95992
2.62958
3.49121
3.61317
3.58863
3.54061
3.52715
3.53997
3.57056
3.60983
3.67164
3.78009
3.94202
4.09447
4.23324
4.34625
4.43763
4.51183
4.5657
4.59786
4.6155
4.62
4.61805
4.60964
4.59007
4.56022
4.52888
4.49494
4.45878
4.41982
4.3791
4.33638
4.29239
4.24686
4.20032
4.15258
4.10405
4.05459
4.00454
3.95381
3.90271
3.85124
3.79966
3.74803
3.69652
3.6452
3.59414
3.54338
3.49293
3.44286
3.39311
3.34381
3.29487
3.24648
3.1985
3.15116
3.10429
3.05815
3.01254
2.96773
2.92347
2.87999
2.837
2.79493
2.75344
2.71277
2.67276
2.63361
2.59538
2.55881
2.52489
2.49508
2.47766
4.56043
3.26523
2.44877
1.931
1.59617
1.39
1.26872
1.25383
1.26127
1.28298
1.32829
1.37139
1.39982
1.41313
1.414
1.41346
1.41219
1.4123
1.41287
1.41417
1.4165
1.41878
1.42302
1.43194
1.45144
1.49478
1.59272
1.80836
2.28166
3.25587
3.58584
3.5846
3.56614
3.55876
3.56739
3.58907
3.62807
3.70371
3.80611
3.9377
4.07638
4.20718
4.3189
4.41018
4.48175
4.53531
4.56963
4.58935
4.59611
4.59517
4.59
4.57632
4.54861
4.51705
4.48357
4.44823
4.41022
4.3702
4.3281
4.28455
4.23948
4.19329
4.1459
4.09763
4.04846
3.99863
3.94822
3.89738
3.84625
3.79495
3.74365
3.69238
3.64131
3.5904
3.53983
3.48948
3.43954
3.38988
3.3407
3.29187
3.2436
3.19574
3.14851
3.10179
3.05581
3.01027
2.96555
2.92142
2.87809
2.83536
2.79331
2.75179
2.71111
2.67104
2.63187
2.59359
2.55678
2.52242
2.49157
2.47269
5.01484
3.84164
2.97287
2.36738
1.96062
1.68707
1.51435
1.40539
1.3415
1.32417
1.32764
1.33935
1.36438
1.39405
1.41478
1.4257
1.42556
1.4246
1.42232
1.41962
1.41978
1.42059
1.42305
1.42874
1.44165
1.47052
1.53553
1.68002
2.00726
2.72947
3.46942
3.59856
3.61982
3.62978
3.65524
3.70852
3.77151
3.82754
3.89095
3.9736
4.06913
4.16567
4.26773
4.35884
4.43296
4.48935
4.52716
4.55024
4.56039
4.56076
4.55837
4.55013
4.53099
4.49972
4.46611
4.43138
4.39453
4.35562
4.31454
4.27178
4.22742
4.18178
4.13494
4.08711
4.03843
3.98903
3.9391
3.88871
3.83809
3.78723
3.73636
3.68545
3.63472
3.58408
3.53375
3.48359
3.43386
3.38437
3.33539
3.28675
3.2387
3.19103
3.14398
3.09745
3.05174
3.00653
2.96203
2.91795
2.87472
2.83201
2.7901
2.74868
2.70811
2.66807
2.62898
2.59062
2.55363
2.51874
2.48693
2.46618
5.28918
4.2593
3.42287
2.7904
2.32784
1.99116
1.74621
1.57042
1.44712
1.3698
1.32872
1.32881
1.33258
1.34323
1.3652
1.38666
1.4021
1.41153
1.41424
1.41405
1.41355
1.41376
1.41483
1.41803
1.42596
1.44432
1.48582
1.57964
1.78456
2.22713
3.14183
3.56115
3.6846
3.74712
3.838
3.94411
4.01056
4.04291
4.0604
4.07103
4.09095
4.13516
4.1983
4.28151
4.36275
4.42764
4.47304
4.50206
4.51668
4.52073
4.5195
4.51478
4.5029
4.47833
4.44528
4.41069
4.37463
4.33677
4.29685
4.25512
4.2117
4.16684
4.12074
4.07354
4.0255
3.97669
3.9274
3.87761
3.82762
3.77732
3.72702
3.67658
3.6263
3.57599
3.52601
3.47612
3.42668
3.37743
3.32878
3.28041
3.23267
3.18532
3.1388
3.09254
3.04703
3.00194
2.95765
2.91375
2.87071
2.8281
2.78637
2.74507
2.70464
2.66467
2.62564
2.58726
2.55013
2.51484
2.48229
2.45949
5.47352
4.58002
3.80325
3.17421
2.6829
2.30537
2.01727
1.79986
1.63704
1.51952
1.43496
1.38082
1.35213
1.35169
1.35451
1.36272
1.37978
1.39817
1.41286
1.42209
1.42422
1.42394
1.42323
1.42376
1.42639
1.43481
1.45668
1.50942
1.62993
1.89914
2.48275
3.37102
3.69397
3.91477
4.12988
4.30023
4.35604
4.34879
4.31312
4.22662
4.14107
4.13192
4.14679
4.18782
4.2665
4.3403
4.39882
4.4393
4.46268
4.47322
4.47301
4.4708
4.46406
4.44872
4.41901
4.38514
4.34963
4.31264
4.27391
4.23338
4.19115
4.14733
4.10221
4.05592
4.00876
3.96079
3.91234
3.86335
3.81413
3.76454
3.71492
3.66504
3.61529
3.56542
3.51586
3.4663
3.41725
3.36831
3.32007
3.27213
3.22496
3.17803
3.13187
3.08593
3.04073
2.99586
2.95181
2.90813
2.8653
2.82287
2.7813
2.74016
2.69987
2.66004
2.62111
2.58278
2.5456
2.51001
2.47703
2.45239
5.60226
4.82432
4.11429
3.50771
3.00906
2.60804
2.28886
2.03668
1.83768
1.68248
1.56195
1.47396
1.40932
1.37125
1.35337
1.35379
1.35667
1.36392
1.37852
1.39187
1.40207
1.40822
1.4111
1.41235
1.4149
1.42066
1.43411
1.46537
1.53787
1.70157
2.06991
2.8672
3.62056
4.11663
4.55963
4.77864
4.77634
4.73496
4.6149
4.39205
4.22686
4.14442
4.13309
4.1411
4.1701
4.23143
4.29876
4.35503
4.39313
4.4147
4.42148
4.42065
4.41695
4.40742
4.38713
4.35549
4.32061
4.28427
4.24656
4.20726
4.16639
4.1239
4.08008
4.03498
3.98896
3.94204
3.89462
3.84658
3.7983
3.74955
3.7007
3.65149
3.60234
3.55299
3.50395
3.45483
3.40632
3.35807
3.31046
3.26304
3.21633
3.16979
3.12396
3.07834
3.03347
2.98888
2.94511
2.90169
2.8591
2.81691
2.77557
2.73464
2.69455
2.65491
2.61613
2.57791
2.54077
2.50501
2.4718
2.44576
5.69422
5.01007
4.36446
3.7903
3.29895
2.88861
2.55056
2.27452
2.04999
1.86872
1.72289
1.60769
1.51796
1.45149
1.40337
1.37554
1.36194
1.36236
1.36497
1.3714
1.38434
1.39683
1.40701
1.41391
1.41607
1.4195
1.4272
1.4453
1.48781
1.58638
1.80965
2.29768
3.32079
4.27408
5.14727
5.33948
5.29762
5.16041
4.87342
4.57447
4.35203
4.21046
4.13741
4.11838
4.12147
4.13928
4.1809
4.24271
4.29677
4.33489
4.35585
4.36208
4.36084
4.35596
4.34407
4.31968
4.28686
4.25141
4.21462
4.17647
4.13701
4.09608
4.05388
4.01032
3.96577
3.92017
3.87398
3.82706
3.77984
3.73202
3.68404
3.63557
3.58711
3.53835
3.48992
3.44162
3.39385
3.34624
3.29923
3.2523
3.20601
3.15986
3.1144
3.06916
3.02466
2.98043
2.937
2.89391
2.85163
2.80974
2.76867
2.728
2.68816
2.64874
2.61016
2.5721
2.53507
2.49924
2.46596
2.43892
5.76125
5.15302
4.56599
4.02808
3.55287
3.14355
2.79643
2.50523
2.2622
2.06053
1.8935
1.75615
1.64394
1.55373
1.48309
1.42995
1.39238
1.37143
1.36229
1.36274
1.36496
1.3702
1.38035
1.38896
1.39693
1.40367
1.41056
1.42463
1.45476
1.52152
1.67122
2.00612
2.73821
4.23698
5.79567
5.89985
5.79859
5.53245
5.1138
4.76445
4.50079
4.31199
4.18665
4.11551
4.08948
4.08535
4.0945
4.12107
4.17464
4.22516
4.26345
4.28633
4.29377
4.29251
4.28721
4.27428
4.24796
4.21489
4.1792
4.14198
4.10378
4.0644
4.02401
3.98227
3.93948
3.89545
3.85073
3.80511
3.75908
3.71231
3.66526
3.6176
3.56991
3.522
3.47448
3.42701
3.38002
3.33305
3.28661
3.24022
3.19441
3.14874
3.10372
3.05892
3.01484
2.97103
2.92799
2.88527
2.84335
2.8018
2.76104
2.72067
2.68111
2.64195
2.60361
2.56575
2.5289
2.49309
2.45984
2.4321
5.81111
5.26488
4.72952
4.22789
3.77356
3.37217
3.02339
2.72394
2.46854
2.25195
2.06871
1.91433
1.78471
1.67672
1.58781
1.51576
1.45985
1.41719
1.38693
1.37014
1.36294
1.36341
1.36552
1.37048
1.38043
1.39091
1.40214
1.41502
1.4413
1.49719
1.62078
1.89881
2.5388
3.98758
6.3106
6.37728
6.22593
5.85854
5.37309
4.98145
4.6788
4.44781
4.27733
4.15828
4.08634
4.05608
4.04034
4.04437
4.06092
4.0971
4.14249
4.18131
4.20687
4.21682
4.21593
4.21121
4.19901
4.17373
4.14099
4.10486
4.06749
4.02928
3.99056
3.95072
3.90989
3.86773
3.82473
3.78061
3.7359
3.69023
3.64413
3.59739
3.55075
3.50392
3.4574
3.41075
3.36448
3.31817
3.27233
3.22652
3.18127
3.13614
3.09163
3.04733
3.00372
2.96037
2.91776
2.87546
2.83393
2.79275
2.75235
2.71233
2.67308
2.63422
2.59617
2.55855
2.52194
2.48621
2.45309
2.42484
5.85087
5.35481
4.86401
4.39671
3.96516
3.57602
3.23084
2.92853
2.66576
2.43877
2.24329
2.07547
1.93171
1.80899
1.70476
1.61689
1.54401
1.48445
1.43821
1.40276
1.37832
1.36441
1.3602
1.36092
1.36362
1.36977
1.38211
1.39986
1.42848
1.48678
1.60913
1.87394
2.45303
3.69608
6.20819
6.62408
6.50194
6.18531
5.7065
5.26655
4.90907
4.62777
4.4107
4.24824
4.13206
4.05617
4.01715
3.99179
3.98981
3.99668
4.01619
4.05574
4.09235
4.11882
4.13318
4.13286
4.12946
4.11932
4.09761
4.06546
4.0294
3.99211
3.95452
3.91615
3.87709
3.83685
3.79574
3.75334
3.7101
3.66565
3.62075
3.5753
3.52988
3.48414
3.43857
3.39279
3.34731
3.30173
3.25657
3.21143
3.1668
3.12228
3.07835
3.0346
2.99151
2.94867
2.90654
2.8647
2.82361
2.78284
2.74284
2.70318
2.66429
2.62576
2.58804
2.5507
2.51436
2.47878
2.44586
2.41722
5.88305
5.42839
4.9763
4.54081
4.13241
3.75785
3.41982
3.11853
2.85231
2.61851
2.41406
2.23574
2.08058
1.9458
1.8291
1.72839
1.6422
1.56899
1.50822
1.45835
1.42004
1.3907
1.37134
1.36216
1.36294
1.36647
1.37546
1.39446
1.43255
1.50853
1.66312
1.9807
2.63613
3.60566
5.22547
6.30155
6.38854
6.28437
6.01501
5.58998
5.18376
4.85542
4.59156
4.38562
4.22704
4.10872
4.02579
3.97518
3.94393
3.92659
3.92904
3.94
3.96437
3.99856
4.02571
4.04216
4.04558
4.0434
4.03583
4.01862
3.98821
3.95362
3.91704
3.87937
3.84136
3.80266
3.76334
3.72275
3.68113
3.63832
3.59504
3.55106
3.50693
3.4623
3.41774
3.37289
3.32827
3.28353
3.23915
3.19476
3.15084
3.107
3.06371
3.02058
2.97809
2.9358
2.8942
2.85286
2.81224
2.77193
2.73235
2.6931
2.65461
2.61645
2.57908
2.54206
2.50605
2.47066
2.43799
2.40905
5.91094
5.49083
5.07256
4.66606
4.28005
3.9208
3.59179
3.29405
3.0271
2.7893
2.57844
2.39214
2.22782
2.08327
1.9562
1.84494
1.74768
1.66327
1.5906
1.52865
1.47743
1.43495
1.40439
1.37961
1.37693
1.37963
1.38903
1.4127
1.46462
1.57431
1.79987
2.2591
2.99508
3.58774
4.27116
5.22883
5.95642
6.10441
6.04365
5.85311
5.48687
5.143
4.83046
4.57489
4.37169
4.21125
4.08644
3.99446
3.93238
3.89367
3.86462
3.8579
3.8621
3.87505
3.90189
3.92751
3.94617
3.95433
3.95322
3.94831
3.93581
3.91053
3.87788
3.84124
3.8038
3.76592
3.7278
3.68868
3.64883
3.60802
3.56662
3.52429
3.48158
3.4382
3.39476
3.35094
3.30729
3.26346
3.21996
3.17641
3.1333
3.09024
3.0477
3.00527
2.96345
2.92179
2.88078
2.84
2.7999
2.76007
2.72096
2.68215
2.64408
2.60632
2.56934
2.53267
2.49702
2.46187
2.42951
2.40034
5.94104
5.54862
5.15944
4.77825
4.41263
4.06828
3.74883
3.4561
3.19019
2.95048
2.73528
2.54307
2.37151
2.2191
2.08347
1.96347
1.85705
1.76339
1.68106
1.60923
1.54781
1.49459
1.45398
1.41801
1.41073
1.41418
1.42746
1.46217
1.54124
1.70931
2.05257
2.7132
3.25183
3.56212
3.83433
4.26054
4.9028
5.51507
5.78691
5.75984
5.64486
5.39084
5.10584
4.8188
4.57173
4.36609
4.19902
4.06528
3.96266
3.88864
3.8408
3.80482
3.78187
3.78271
3.78859
3.80217
3.8268
3.84609
3.85924
3.85974
3.85731
3.84921
3.83135
3.80012
3.76515
3.72796
3.69013
3.6518
3.61347
3.5745
3.53499
3.49447
3.4534
3.41149
3.36937
3.32672
3.28417
3.24136
3.19886
3.15625
3.11407
3.07188
3.03019
2.98855
2.94747
2.90651
2.86616
2.82598
2.78645
2.74716
2.70856
2.67023
2.63264
2.59531
2.55877
2.5225
2.48726
2.45239
2.42038
2.39105
5.97949
5.60712
5.24049
4.88079
4.53281
4.20214
3.89214
3.60506
3.34147
3.1014
2.88357
2.68724
2.51018
2.35159
2.20903
2.08183
1.96785
1.86646
1.77621
1.69622
1.62651
1.56477
1.5165
1.47278
1.46911
1.47497
1.49651
1.55396
1.68367
1.95693
2.51294
3.08273
3.39527
3.53451
3.63462
3.79478
4.06048
4.4824
5.02938
5.41609
5.48414
5.44052
5.31545
5.06485
4.82687
4.57581
4.36568
4.18984
4.04619
3.93232
3.84644
3.78729
3.74383
3.71229
3.69833
3.70029
3.70765
3.72363
3.74393
3.75856
3.7654
3.76422
3.75916
3.74678
3.72168
3.68835
3.65124
3.61331
3.57569
3.53786
3.4999
3.46114
3.42189
3.38173
3.3412
3.29999
3.25874
3.21713
3.17574
3.13421
3.09305
3.05184
3.01108
2.97033
2.93009
2.8899
2.85028
2.81078
2.77189
2.73319
2.69516
2.65737
2.62028
2.58344
2.54738
2.51154
2.47674
2.4422
2.41058
2.38115
6.03432
5.66866
5.31731
4.97416
4.64182
4.32344
4.02275
3.74177
3.48136
3.24227
3.02319
2.82424
2.64325
2.47982
2.33192
2.19868
2.07864
1.97065
1.87392
1.78722
1.71056
1.64335
1.58798
1.54863
1.55055
1.56362
1.60465
1.70607
1.92868
2.3909
2.99168
3.33731
3.47487
3.52192
3.54203
3.57618
3.65611
3.81803
4.09427
4.52843
4.9571
5.22828
5.21694
5.16027
5.03202
4.79836
4.58718
4.36787
4.18427
4.03157
3.90609
3.80837
3.73546
3.68508
3.64414
3.61759
3.61287
3.61567
3.62393
3.64103
3.65698
3.66811
3.66841
3.66611
3.65859
3.6418
3.61029
3.57431
3.53716
3.49965
3.46236
3.42481
3.38716
3.34879
3.31006
3.27059
3.23093
3.19079
3.15073
3.11042
3.0704
3.03026
2.99051
2.95071
2.91136
2.87202
2.83317
2.7944
2.7562
2.71815
2.68073
2.64352
2.60699
2.57069
2.53515
2.49979
2.46548
2.43131
2.40014
2.37066
6.10727
5.73257
5.38942
5.05986
4.74026
4.43358
4.14162
3.86737
3.61079
3.37365
3.15469
2.95415
2.77077
2.60354
2.45164
2.31344
2.18847
2.07503
1.97283
1.88079
1.79851
1.72878
1.66876
1.65062
1.65759
1.68648
1.76603
1.94885
2.33498
2.96422
3.35544
3.50063
3.52428
3.51904
3.4986
3.46448
3.47073
3.50772
3.60143
3.7884
4.08286
4.49468
4.82203
4.9909
4.97546
4.91089
4.76222
4.56263
4.37434
4.18269
4.01976
3.88516
3.7742
3.68782
3.62553
3.57885
3.5441
3.52417
3.52482
3.52883
3.53824
3.55473
3.56658
3.5725
3.57142
3.56672
3.55498
3.53075
3.49801
3.46154
3.42453
3.38737
3.35052
3.31338
3.27622
3.23852
3.20065
3.16223
3.12374
3.08488
3.04615
3.0072
2.96853
2.92973
2.89132
2.85285
2.81482
2.77684
2.73937
2.70203
2.66527
2.6287
2.59278
2.55707
2.52208
2.48725
2.45347
2.41971
2.38903
2.35958
6.18007
5.79871
5.45797
5.13799
4.83024
4.53439
4.25083
3.98297
3.73123
3.49639
3.27875
3.0775
2.89271
2.72291
2.56776
2.42592
2.29661
2.17895
2.07218
1.97582
1.89103
1.81875
1.77251
1.77563
1.79582
1.85893
2.01152
2.33505
2.98014
3.42532
3.59177
3.60048
3.58846
3.5509
3.47587
3.4142
3.37667
3.37047
3.38393
3.43486
3.54648
3.73377
4.01926
4.3662
4.6275
4.74444
4.7281
4.6668
4.52942
4.34894
4.18158
4.01499
3.86762
3.74719
3.64799
3.57099
3.51704
3.47441
3.44567
3.43484
3.43625
3.44118
3.45187
3.46524
3.4749
3.47514
3.47309
3.46603
3.45019
3.4199
3.38601
3.34985
3.31335
3.27667
3.24043
3.2041
3.1679
3.13127
3.09455
3.05735
3.02014
2.98256
2.94511
2.90742
2.87
2.83246
2.7953
2.75813
2.72143
2.68482
2.64878
2.61289
2.57764
2.54255
2.50819
2.47392
2.44073
2.40742
2.37727
2.34792
6.30307
5.8871
5.53079
5.21349
4.91406
4.6272
4.35235
4.09068
3.84376
3.6121
3.39594
3.19523
3.00942
2.8382
2.68046
2.53583
2.40316
2.28195
2.17197
2.07257
1.98904
1.91892
1.91325
1.92668
1.97694
2.11172
2.40704
3.01206
3.52926
3.73152
3.73598
3.71883
3.66692
3.56265
3.46937
3.39983
3.34472
3.30725
3.28092
3.28267
3.29897
3.35193
3.46432
3.64055
3.89432
4.18535
4.40326
4.50204
4.48775
4.43505
4.31657
4.15338
4.0039
3.85995
3.72468
3.61467
3.52561
3.45834
3.4113
3.37428
3.3506
3.34588
3.34767
3.35308
3.36437
3.37519
3.38031
3.37936
3.37518
3.36425
3.3418
3.31067
3.27599
3.23997
3.20425
3.16868
3.13361
3.09841
3.06332
3.0278
2.99221
2.95614
2.92006
2.8836
2.8473
2.81077
2.77454
2.73825
2.70239
2.66658
2.6313
2.59615
2.5616
2.52719
2.49349
2.45983
2.42726
2.39445
2.36486
2.33567
6.34476
5.97873
5.61092
5.28946
4.99468
4.71502
4.44758
4.19245
3.94995
3.72155
3.50741
3.30753
3.12166
2.94933
2.79009
2.64306
2.50804
2.38421
2.27212
2.17421
2.09235
2.06206
2.07223
2.11555
2.23747
2.51317
3.08716
3.67623
3.91866
3.92186
3.89997
3.83412
3.70207
3.58132
3.48265
3.40219
3.33817
3.29028
3.24325
3.20854
3.18198
3.18388
3.19946
3.24794
3.34981
3.51124
3.72911
3.98057
4.1683
4.26954
4.25828
4.21623
4.12059
3.97669
3.84118
3.71325
3.5893
3.48823
3.40893
3.35078
3.30702
3.27546
3.25742
3.25781
3.26004
3.26556
3.27648
3.28437
3.28416
3.28191
3.2754
3.26064
3.23307
3.20107
3.16721
3.13263
3.09836
3.06416
3.03033
2.99627
2.96225
2.92776
2.8932
2.85815
2.82311
2.78773
2.75255
2.71721
2.68225
2.6473
2.61283
2.57847
2.54467
2.51099
2.47799
2.44499
2.41308
2.38082
2.35184
2.32287
6.32256
6.10148
5.71343
5.37381
5.07532
4.79951
4.53785
4.28818
4.05094
3.82581
3.61389
3.41532
3.22975
3.05702
2.89659
2.74814
2.61137
2.48625
2.37556
2.281
2.22912
2.2357
2.27152
2.37908
2.63492
3.17769
3.85614
4.14828
4.15194
4.12547
4.04562
3.88686
3.74345
3.62427
3.52392
3.43665
3.35969
3.29027
3.23365
3.18348
3.13626
3.09993
3.07219
3.07189
3.08395
3.12515
3.21323
3.35959
3.54433
3.76581
3.93375
4.047
4.03891
4.00818
3.94276
3.81998
3.69169
3.57204
3.45974
3.36769
3.29689
3.24499
3.20529
3.17887
3.16884
3.16955
3.17246
3.17911
3.18717
3.18955
3.18858
3.18467
3.17472
3.15451
3.12687
3.09531
3.06256
3.02938
2.99647
2.96348
2.93072
2.89765
2.86456
2.83096
2.7973
2.76318
2.72917
2.69491
2.66094
2.62693
2.59334
2.55984
2.52685
2.49396
2.46171
2.42943
2.39823
2.36658
2.33824
2.30957
6.25754
6.12396
5.83044
5.47122
5.16063
4.88362
4.6256
4.38048
4.14721
3.9258
3.71621
3.5192
3.33439
3.16166
3.00068
2.85145
2.71418
2.59059
2.48507
2.41176
2.41516
2.44463
2.54143
2.78495
3.30507
4.06715
4.41305
4.41988
4.38876
4.29401
4.1114
3.94549
3.80703
3.68904
3.58449
3.48926
3.40122
3.31975
3.245
3.17876
3.12326
3.06869
3.02005
2.98198
2.95354
2.94921
2.95882
2.99237
3.06494
3.19545
3.35279
3.5472
3.70593
3.82766
3.83526
3.81828
3.77147
3.67325
3.54995
3.43515
3.33557
3.25273
3.18737
3.13879
3.10444
3.08516
3.08191
3.08295
3.08614
3.09266
3.09817
3.09794
3.09602
3.09022
3.0776
3.05331
3.02497
2.99392
2.96215
2.93
2.89814
2.86617
2.83434
2.80211
2.76984
2.73708
2.70435
2.67129
2.63844
2.60548
2.57288
2.5403
2.50819
2.47613
2.44469
2.41316
2.38272
2.35172
2.32407
2.29575
6.15682
6.094
5.91922
5.5718
5.25063
4.96877
4.71164
4.46991
4.24032
4.0222
3.81562
3.62005
3.43605
3.26374
3.10274
2.95405
2.81807
2.70299
2.60879
2.60882
2.63244
2.71723
2.94346
3.427
4.29336
4.70415
4.71607
4.68058
4.57224
4.36684
4.17921
4.02208
3.88731
3.76699
3.65633
3.5528
3.45531
3.36349
3.27732
3.19754
3.12367
3.06054
3.00215
2.94734
2.89811
2.85928
2.83028
2.82146
2.82874
2.85463
2.91216
3.02262
3.16166
3.33066
3.48855
3.60889
3.64935
3.63873
3.60445
3.52899
3.41679
3.30976
3.21326
3.13454
3.0746
3.03141
3.00526
2.99217
2.99271
2.99483
2.99936
3.0068
3.01013
3.00939
3.00613
2.99782
2.98069
2.95531
2.9267
2.89616
2.86524
2.83405
2.80312
2.77196
2.74089
2.70943
2.67801
2.64625
2.61465
2.58287
2.55138
2.51984
2.4887
2.45755
2.42697
2.39625
2.36662
2.33633
2.30941
2.28153
5.98377
5.99475
5.91153
5.70216
5.36154
5.06181
4.79896
4.55788
4.33113
4.11595
3.91162
3.71825
3.53558
3.36401
3.20427
3.05757
2.93068
2.82726
2.80985
2.83171
2.91391
3.13371
3.60839
4.53435
5.00478
5.03391
4.99494
4.87526
4.64728
4.43858
4.2634
4.11259
3.97729
3.85211
3.73432
3.62261
3.51654
3.41588
3.32072
3.23106
3.1472
3.06956
2.99895
2.93754
2.87743
2.82287
2.77384
2.73416
2.7047
2.69153
2.69681
2.71612
2.76129
2.85036
2.97546
3.12282
3.27959
3.39626
3.47419
3.46671
3.44114
3.38869
3.30382
3.20662
3.11449
3.03786
2.97933
2.93907
2.91642
2.90617
2.90681
2.9093
2.91471
2.92223
2.92262
2.92136
2.91685
2.90643
2.88566
2.85998
2.83152
2.80154
2.77143
2.74107
2.71089
2.68048
2.65023
2.61976
2.58947
2.559
2.52874
2.49837
2.46831
2.43817
2.40855
2.37872
2.34996
2.32043
2.29428
2.26693
5.5468
5.88844
5.861
5.7405
5.47902
5.16407
4.88979
4.64608
4.42072
4.20806
4.00613
3.81442
3.63317
3.46368
3.30685
3.16968
3.05627
3.02601
3.04662
3.12819
3.35026
3.83624
4.81169
5.33968
5.37922
5.33614
5.20205
4.94984
4.71942
4.52633
4.3601
4.21049
4.07146
3.93998
3.81476
3.69527
3.58138
3.47303
3.3702
3.27285
3.18099
3.0946
3.01412
2.93919
2.87222
2.81089
2.75159
2.69727
2.64911
2.6089
2.57995
2.56283
2.56638
2.58054
2.61502
2.68448
2.79455
2.92728
3.07668
3.19802
3.29675
3.30202
3.28811
3.2528
3.17813
3.08766
3.00658
2.94069
2.89045
2.85428
2.8335
2.82454
2.8252
2.82781
2.833
2.83803
2.83755
2.83524
2.82892
2.81558
2.79358
2.7673
2.73911
2.70983
2.68042
2.65078
2.62146
2.59211
2.56304
2.53388
2.50493
2.47584
2.44699
2.41799
2.38943
2.36058
2.33277
2.3041
2.27877
2.25205
4.56601
5.64468
5.76943
5.71814
5.5733
5.27872
4.99024
4.7387
4.51167
4.29986
4.09955
3.90982
3.73108
3.56474
3.41795
3.29579
3.25479
3.27483
3.35757
3.58627
4.09329
5.11664
5.70874
5.75568
5.70658
5.55388
5.27462
5.02087
4.80922
4.62751
4.46388
4.31134
4.16652
4.02805
3.89546
3.76869
3.6477
3.5325
3.42299
3.3191
3.22068
3.12765
3.03993
2.95746
2.88063
2.80923
2.74531
2.68386
2.6264
2.57294
2.52629
2.48559
2.4571
2.43667
2.43892
2.44904
2.47452
2.52771
2.6231
2.74576
2.88277
3.0151
3.11862
3.15612
3.14577
3.11542
3.05205
2.97578
2.90821
2.85195
2.80636
2.77373
2.75573
2.74776
2.74854
2.75087
2.75436
2.75604
2.75506
2.75156
2.74326
2.72637
2.70358
2.67698
2.64919
2.62066
2.59225
2.56384
2.53582
2.50783
2.48011
2.45229
2.4247
2.39694
2.36956
2.34182
2.31507
2.28738
2.26293
2.23699
2.89454
5.0685
5.63761
5.64536
5.57624
5.40528
5.11024
4.84244
4.60708
4.39269
4.1926
4.00484
3.82989
3.67441
3.54433
3.49583
3.51607
3.60191
3.84178
4.37495
5.45397
6.09634
6.15013
6.09539
5.92646
5.62043
5.34303
5.11244
4.91495
4.73708
4.57087
4.41258
4.26074
4.11496
3.97523
3.84161
3.71411
3.59269
3.47723
3.36757
3.26352
3.1649
3.07151
2.98321
2.89992
2.8216
2.74841
2.68079
2.6193
2.55894
2.50309
2.45098
2.4058
2.36577
2.33742
2.31497
2.31545
2.322
2.34059
2.3833
2.46442
2.57581
2.70352
2.84247
2.95291
3.01587
3.00815
2.9839
2.9335
2.87078
2.81421
2.76438
2.72403
2.69693
2.68205
2.67488
2.67528
2.6763
2.67758
2.67727
2.67526
2.67002
2.65886
2.63844
2.61487
2.58909
2.56248
2.53535
2.50839
2.48141
2.45475
2.42807
2.40168
2.37514
2.349
2.32246
2.29687
2.2703
2.24684
2.22187
2.15222
3.77148
5.267
5.55367
5.53757
5.44674
5.24134
4.95826
4.70754
4.48645
4.28579
4.10132
3.93791
3.80093
3.74828
3.76969