/*--------------------------------*- C++ -*----------------------------------*\
  =========                 |
  \\      /  F ield         | OpenFOAM: The Open Source CFD Toolbox
   \\    /   O peration     | Website:  https://openfoam.org
    \\  /    A nd           | Version:  13
     \\/     M anipulation  |
\*---------------------------------------------------------------------------*/
FoamFile
{
    format      ascii;
    class       surfaceScalarField;
    location    "3";
    object      phi;
}
// * * * * * * * * * * * * * * * * * * * * * * * * * * * * * * * * * * * * * //

dimensions      [1 0 -1 0 0 0 0];

internalField   nonuniform List<scalar> 
10325
(
0.0840003
1.55134e-09
0.0840006
2.67223e-09
0.0839996
2.73735e-08
0.0840021
2.46813e-08
0.083996
2.11973e-07
0.0840103
1.37591e-07
0.0839771
1.37697e-06
0.0840487
9.31188e-07
0.0838983
7.57548e-06
0.084129
9.51216e-06
0.0837725
3.95345e-05
0.0840087
9.15509e-05
0.0834632
0.000311293
0.0824825
0.00113641
0.0767693
0.00579541
0.0700533
0.00669705
0.0636709
0.00635838
0.0570885
0.00656277
0.0501809
0.00688631
0.0428701
0.00729405
0.0350618
0.00779915
0.0267476
0.00828236
0.0180596
0.00866517
0.00910405
0.0089507
0.00909168
0.0840003
2.06597e-09
0.0840004
8.69483e-09
0.084
4.33687e-08
0.0840009
8.84893e-08
0.0839991
2.97691e-07
0.0840001
6.77089e-07
0.0839985
1.70096e-06
0.0839917
4.53647e-06
0.0839948
1.00595e-05
0.0839737
2.8668e-05
0.0839348
6.83108e-05
0.0838623
0.000201149
0.0835454
0.00062017
0.082429
0.00228835
0.0768626
0.0114669
0.0699953
0.0135475
0.0636933
0.0126366
0.0572069
0.0130298
0.0503493
0.013723
0.0429723
0.0146547
0.0350982
0.0156646
0.0267456
0.016604
0.0180028
0.0173859
0.00899772
0.0179514
0.0180775
0.0840003
2.02355e-09
0.0840001
1.85154e-08
0.0840008
4.56637e-08
0.083999
1.8368e-07
0.0840033
3.56067e-07
0.0839916
1.16193e-06
0.0840192
2.42725e-06
0.0839545
6.7332e-06
0.0840784
1.60945e-05
0.0838487
3.99332e-05
0.0841013
0.00010635
0.083727
0.000291317
0.083647
0.000922266
0.0825341
0.00333201
0.0775845
0.0165394
0.0706087
0.020509
0.0642937
0.0189276
0.0578639
0.0194409
0.0510634
0.0205042
0.0436863
0.0220159
0.0357693
0.0235723
0.0273323
0.0250057
0.0184579
0.0262359
0.00925075
0.0271559
0.0273188
0.0840003
2.48215e-09
0.0840004
2.31533e-08
0.0839998
6.10484e-08
0.0840015
2.24243e-07
0.0839977
4.574e-07
0.0840057
1.47495e-06
0.0839879
2.8731e-06
0.0840179
9.22043e-06
0.0839562
1.8067e-05
0.0840404
5.56723e-05
0.0838733
0.000127772
0.083961
0.000378855
0.0836097
0.00115209
0.0828663
0.00416604
0.0791011
0.0203935
0.0720672
0.0275248
0.0656316
0.0253396
0.0591969
0.0258567
0.0524242
0.0272578
0.0450592
0.0293615
0.0371016
0.0315235
0.0285746
0.0335066
0.0194637
0.0353347
0.00982777
0.0367964
0.0371449
0.0840003
4.76473e-09
0.0840004
1.75141e-08
0.0839999
9.4126e-08
0.0840012
1.71029e-07
0.0839976
6.91027e-07
0.0840066
1.20308e-06
0.0839831
4.30551e-06
0.0840391
7.9012e-06
0.0839154
2.57772e-05
0.0841281
5.38506e-05
0.0838017
0.000158282
0.084089
0.000413206
0.0836864
0.00130561
0.0834006
0.00461525
0.0817452
0.0221123
0.0746627
0.0345913
0.0678877
0.0320931
0.0613466
0.032383
0.0545739
0.0340139
0.04722
0.0367044
0.039203
0.0395348
0.0304625
0.0422331
0.0209888
0.0447996
0.0107511
0.0470385
0.0478956
0.0840003
2.62051e-09
0.0840002
2.74543e-08
0.0840006
6.54752e-08
0.0839995
2.66555e-07
0.0840024
4.98469e-07
0.0839946
1.73744e-06
0.0840142
3.17311e-06
0.0839675
1.06674e-05
0.084071
2.04389e-05
0.0838809
6.38294e-05
0.0841581
0.000144051
0.083867
0.000424787
0.0841509
0.00125622
0.0842557
0.00440843
0.0863841
0.0200875
0.0791649
0.0418054
0.071488
0.0397537
0.0646232
0.0392327
0.0577237
0.0408944
0.0503474
0.0440677
0.0422339
0.047642
0.0332455
0.0512084
0.0232675
0.0547653
0.0121493
0.0581606
0.060045
0.0840003
3.39203e-09
0.0840004
2.12219e-08
0.0840003
7.25421e-08
0.0840003
2.07864e-07
0.084
5.39719e-07
0.0840015
1.34399e-06
0.0839956
3.49036e-06
0.0840134
8.12842e-06
0.0839737
2.16093e-05
0.0840592
5.06668e-05
0.0839683
0.000134738
0.0841468
0.000352208
0.0842719
0.00105095
0.0852374
0.00351034
0.0901528
0.0151867
0.0843222
0.0476611
0.0756293
0.0484428
0.0685544
0.046297
0.0617018
0.0477406
0.0543399
0.0514076
0.046132
0.0558512
0.0369106
0.0604126
0.0264412
0.0652097
0.0142801
0.0703306
0.0743319
0.0840003
3.90456e-09
0.0840004
1.72546e-08
0.084
8.02317e-08
0.084001
1.6807e-07
0.0839984
5.86664e-07
0.0840055
1.16085e-06
0.0839882
3.53176e-06
0.0840317
7.45171e-06
0.0839409
2.06256e-05
0.0841165
4.75135e-05
0.0838676
0.000125284
0.0841924
0.00032613
0.0840366
0.000955319
0.0845374
0.00315696
0.0863917
0.0133175
0.0836807
0.0504066
0.0768249
0.0553041
0.0712715
0.0518407
0.0650337
0.0539683
0.0582937
0.0581267
0.0504515
0.0636884
0.0413387
0.0695131
0.0306659
0.0758685
0.0175162
0.0834819
0.0918617
0.0840003
2.83399e-09
0.0840002
2.07016e-08
0.0840008
6.43353e-08
0.0839993
2.0235e-07
0.0840029
4.81871e-07
0.0839948
1.33114e-06
0.0840143
3.0763e-06
0.0839725
8.09698e-06
0.0840621
1.89949e-05
0.0838994
4.92804e-05
0.0841496
0.000120956
0.0838511
0.000325262
0.0841455
0.00093008
0.0841044
0.00305388
0.0851638
0.0123163
0.0822515
0.0533461
0.0795263
0.0580285
0.0736128
0.0577462
0.0676458
0.0599212
0.0617919
0.063956
0.0549192
0.0705523
0.046697
0.077725
0.0367035
0.0858481
0.0228216
0.0973621
0.114701
0.0840003
3.14146e-09
0.0840002
2.03561e-08
0.0840006
6.80063e-08
0.0839996
1.99406e-07
0.0840021
4.98484e-07
0.0839965
1.32755e-06
0.0840097
3.11632e-06
0.0839813
8.25857e-06
0.0840362
1.93614e-05
0.0839376
5.02788e-05
0.0840845
0.000124008
0.083883
0.000329903
0.0840797
0.000935305
0.0839833
0.0030257
0.0846718
0.0116954
0.0832624
0.0547693
0.0792214
0.0620691
0.074982
0.0619799
0.0705394
0.0643504
0.0654878
0.0689814
0.0600739
0.075957
0.0537105
0.0840821
0.0447562
0.0947944
0.031641
0.11047
0.146358
0.0840003
3.73322e-09
0.0840003
1.91563e-08
0.0840005
7.64569e-08
0.0839999
1.86411e-07
0.0840011
5.68908e-07
0.0839989
1.23369e-06
0.0840011
3.64556e-06
0.0839985
7.58339e-06
0.083996
2.23035e-05
0.0839967
4.78848e-05
0.0839952
0.000134488
0.083968
0.000330726
0.0839925
0.000956637
0.0839846
0.00301405
0.084442
0.0112501
0.0851018
0.0541338
0.0809397
0.0662335
0.0767309
0.0661837
0.0733262
0.0677416
0.0696135
0.072674
0.0659699
0.0795826
0.0616897
0.0883497
0.0575468
0.0989296
0.0571347
0.110879
0.114513
0.08899
0.0840003
2.71402e-09
0.0840003
2.28051e-08
0.0840004
6.31339e-08
0.084
2.22538e-07
0.0840013
4.75787e-07
0.0839975
1.46034e-06
0.0840075
3.05274e-06
0.0839821
8.96616e-06
0.0840446
1.9238e-05
0.0839126
5.4365e-05
0.0841454
0.000125372
0.0838247
0.000344645
0.0841684
0.000932078
0.0839959
0.00293529
0.0848117
0.0105757
0.089133
0.0498089
0.0846172
0.0707525
0.0799508
0.0708499
0.0764667
0.0712173
0.0736139
0.0755097
0.0710191
0.0821598
0.0690424
0.0903113
0.0686817
0.0992779
0.0731119
0.106438
0.104361
0.0832713
0.0840003
3.53496e-09
0.0840004
1.7575e-08
0.0840002
7.19951e-08
0.0840005
1.72267e-07
0.0839996
5.32036e-07
0.0840024
1.15426e-06
0.083995
3.35481e-06
0.0840154
7.22097e-06
0.0839694
2.05135e-05
0.0840776
4.56275e-05
0.0838937
0.000125975
0.0841979
0.000306537
0.0839779
0.000864772
0.0845581
0.0025911
0.0859389
0.00907366
0.0964963
0.0392981
0.0907988
0.0764544
0.0848722
0.0767768
0.0809797
0.0751011
0.0783179
0.0781617
0.0765697
0.0838932
0.0762512
0.0906127
0.0784587
0.0970593
0.0838597
0.101023
0.0981117
0.0901081
0.0840003
2.23618e-09
0.0840003
1.71927e-08
0.0840003
5.15232e-08
0.0840003
1.67852e-07
0.0840005
3.84282e-07
0.0839999
1.10645e-06
0.0840033
2.42731e-06
0.0839945
6.73477e-06
0.0840251
1.49265e-05
0.0839725
4.01957e-05
0.0841133
9.33916e-05
0.0840166
0.000245976
0.08442
0.000635752
0.0850097
0.00185419
0.0881127
0.00606675
0.102748
0.0246351
0.0977768
0.0814408
0.0931201
0.0814338
0.0870726
0.0811433
0.0838605
0.0813624
0.0825845
0.0851605
0.083047
0.0901382
0.0855454
0.0945519
0.0901816
0.0963749
0.0931073
0.0951764
0.0840003
2.12286e-09
0.0840004
1.37823e-08
0.0840002
4.6839e-08
0.0840007
1.33996e-07
0.0839995
3.47318e-07
0.0840028
8.85694e-07
0.083996
2.15885e-06
0.0840144
5.48044e-06
0.0839789
1.30171e-05
0.084067
3.33565e-05
0.083929
7.92336e-05
0.0842079
0.0002054
0.0840194
0.000524876
0.0846676
0.00149381
0.0857649
0.00477049
0.0920471
0.0184488
0.0991693
0.0743021
0.0958918
0.0847092
0.091657
0.0853759
0.0888833
0.084125
0.0878927
0.0861406
0.0886046
0.0894122
0.09094
0.0922042
0.0946739
0.092629
0.0891108
0.0986651
0.0840003
1.93181e-09
0.0840003
1.18163e-08
0.0840003
4.14447e-08
0.0840004
1.15384e-07
0.0840001
3.07713e-07
0.0840013
7.59221e-07
0.083998
1.9523e-06
0.0840086
4.65067e-06
0.0839842
1.19554e-05
0.0840519
2.83515e-05
0.0839257
7.31188e-05
0.0841834
0.000177962
0.0839314
0.000469783
0.0844495
0.00128846
0.084932
0.00403732
0.088795
0.0147222
0.0989222
0.0641478
0.0976641
0.085968
0.0953841
0.0876528
0.0930405
0.0864671
0.0922792
0.086891
0.0930607
0.0886213
0.0951468
0.0901143
0.0981164
0.0896479
0.0860537
0.101163
0.0840003
1.77233e-09
0.0840003
9.80888e-09
0.0840003
3.70258e-08
0.0840005
9.57849e-08
0.0839999
2.74338e-07
0.0840018
6.39675e-07
0.0839976
1.73319e-06
0.0840094
3.96505e-06
0.0839854
1.06148e-05
0.084049
2.45369e-05
0.0839352
6.47713e-05
0.0841732
0.000155789
0.0839234
0.000412169
0.0844445
0.00110583
0.0848359
0.00336001
0.0879948
0.0117239
0.103756
0.0483435
0.102155
0.0875665
0.0997451
0.09006
0.0970241
0.0891843
0.0962571
0.0876529
0.0968284
0.0880364
0.0985018
0.088432
0.100823
0.0873236
0.0837693
0.103099
0.0840003
1.21119e-09
0.0840003
8.30244e-09
0.0840003
2.72348e-08
0.0840004
8.11792e-08
0.0840003
2.01972e-07
0.0840008
5.36711e-07
0.0840006
1.26093e-06
0.0840014
3.27987e-06
0.0840056
7.66709e-06
0.0840024
1.97002e-05
0.0840394
4.67761e-05
0.0840373
0.000118737
0.0842114
0.00029389
0.0844852
0.00077768
0.0856786
0.00220799
0.0902098
0.00716059
0.110787
0.0277783
0.1092
0.0891448
0.106714
0.0925462
0.10311
0.0927862
0.100866
0.0898955
0.100592
0.088301
0.101574
0.0874419
0.103185
0.0857034
0.0821555
0.104797
0.0840003
1.06054e-09
0.0840003
6.27786e-09
0.0840003
2.29288e-08
0.0840005
6.13549e-08
0.0840001
1.68487e-07
0.0840013
4.0942e-07
0.0839992
1.03778e-06
0.0840054
2.54538e-06
0.0839952
6.13962e-06
0.0840254
1.5618e-05
0.0839809
3.64145e-05
0.0841074
9.52341e-05
0.0840071
0.000226251
0.0844018
0.000603617
0.0847323
0.00164283
0.0868717
0.00518621
0.0952416
0.0193326
0.109753
0.0746395
0.109174
0.0931261
0.107072
0.0948868
0.104711
0.0922567
0.103975
0.0890309
0.104379
0.0870295
0.105342
0.0847333
0.0811321
0.106358
0.0840003
8.42067e-10
0.0840003
5.17603e-09
0.0840004
1.79407e-08
0.0840003
5.03077e-08
0.0840006
1.33791e-07
0.084
3.2872e-07
0.0840016
8.50398e-07
0.0839994
1.99921e-06
0.0840048
5.23191e-06
0.084001
1.2032e-05
0.0840138
3.19767e-05
0.0840207
7.38165e-05
0.0840744
0.000195984
0.0841517
0.000482533
0.084515
0.00134047
0.0856423
0.004012
0.0908049
0.01418
0.110159
0.0552617
0.111596
0.0916987
0.110725
0.0957653
0.108452
0.0945346
0.107151
0.0903366
0.106993
0.0871809
0.10741
0.0843063
0.0806165
0.107917
0.0840003
5.68513e-10
0.0840003
4.07476e-09
0.0840003
1.28412e-08
0.0840004
3.98315e-08
0.0840004
9.52097e-08
0.0840004
2.61839e-07
0.0840008
5.93873e-07
0.0840001
1.59437e-06
0.0840055
3.60004e-06
0.0839962
9.52737e-06
0.0840371
2.17726e-05
0.0839829
5.68828e-05
0.0841855
0.000133989
0.0840952
0.000348031
0.0848168
0.000891854
0.086008
0.00256042
0.0920997
0.00825004
0.116437
0.0308397
0.117337
0.0907963
0.116398
0.0967157
0.113818
0.0971226
0.110962
0.0931927
0.109845
0.0882982
0.109644
0.0845015
0.0805939
0.109655
0.0840003
4.97924e-10
0.0840003
2.79083e-09
0.0840003
1.06139e-08
0.0840004
2.72916e-08
0.0840003
7.80835e-08
0.0840006
1.81347e-07
0.084
4.82726e-07
0.0840026
1.11604e-06
0.0839979
2.86449e-06
0.0840149
6.77908e-06
0.083987
1.69452e-05
0.0840798
4.1059e-05
0.0839587
0.000101105
0.0843135
0.000252938
0.0842128
0.000643989
0.0853571
0.00177197
0.0878556
0.00546605
0.0988759
0.0199589
0.117374
0.0722489
0.118505
0.0955904
0.117034
0.0986004
0.114155
0.0960786
0.112802
0.0896444
0.111986
0.0853139
0.0809924
0.111579
0.0840003
3.44555e-10
0.0840003
2.20493e-09
0.0840003
7.49541e-09
0.0840003
2.15532e-08
0.0840004
5.54126e-08
0.0840002
1.42089e-07
0.084001
3.46869e-07
0.0839997
8.683e-07
0.0840041
2.10875e-06
0.0839979
5.21642e-06
0.0840191
1.27239e-05
0.0839937
3.14334e-05
0.0840812
7.74352e-05
0.0840332
0.000192743
0.0843432
0.000489553
0.0846134
0.00130636
0.086387
0.00385701
0.0930069
0.013247
0.117171
0.048079
0.120078
0.0926772
0.120778
0.0978996
0.119278
0.0975792
0.115895
0.0930242
0.114523
0.0866786
0.0818919
0.113619
0.0840003
2.53167e-10
0.0840003
1.57895e-09
0.0840003
5.46792e-09
0.0840003
1.5409e-08
0.0840004
4.03997e-08
0.0840003
1.0084e-07
0.0840008
2.52674e-07
0.0840002
6.09921e-07
0.0840024
1.52338e-06
0.0840012
3.63245e-06
0.084008
9.1129e-06
0.084014
2.16156e-05
0.0840364
5.44457e-05
0.0840992
0.00013088
0.0842607
0.000331769
0.0846923
0.000846865
0.086225
0.00236381
0.0920482
0.00740547
0.113675
0.0264318
0.124187
0.0821523
0.124131
0.0979463
0.122309
0.0993924
0.118902
0.0964256
0.117288
0.0882887
0.0833444
0.115823
0.0840003
1.74697e-10
0.0840003
1.16028e-09
0.0840003
3.81653e-09
0.0840003
1.12931e-08
0.0840004
2.83772e-08
0.0840003
7.34119e-08
0.0840007
1.78779e-07
0.0840001
4.42201e-07
0.0840024
1.0857e-06
0.0839993
2.62152e-06
0.0840115
6.54557e-06
0.0839968
1.55764e-05
0.0840542
3.93839e-05
0.0840102
9.37511e-05
0.0842377
0.000239885
0.0842878
0.000595275
0.0852625
0.00161955
0.0876547
0.00481853
0.0972162
0.0169569
0.121804
0.057487
0.125173
0.0945686
0.125938
0.0986207
0.124546
0.0978142
0.120547
0.092285
0.0855765
0.118313
0.0840003
1.17035e-10
0.0840003
7.94312e-10
0.0840003
2.61972e-09
0.0840003
7.7578e-09
0.0840003
1.93402e-08
0.0840004
5.08482e-08
0.0840004
1.19542e-07
0.0840005
3.0812e-07
0.0840012
7.14029e-07
0.0840006
1.82748e-06
0.0840071
4.25317e-06
0.0839996
1.07625e-05
0.0840448
2.53935e-05
0.0840023
6.34668e-05
0.0842384
0.000153609
0.084194
0.000385511
0.0851505
0.000990296
0.0868656
0.00277114
0.0952104
0.00881232
0.122413
0.0301597
0.129587
0.087372
0.129646
0.0985592
0.127426
0.100033
0.124012
0.0956952
0.0881498
0.121437
0.0840003
8.67081e-11
0.0840003
5.18791e-10
0.0840003
1.87978e-09
0.0840003
5.06665e-09
0.0840003
1.38278e-08
0.0840004
3.34693e-08
0.0840003
8.4821e-08
0.0840007
2.04647e-07
0.0840002
5.01279e-07
0.0840026
1.2314e-06
0.0839999
2.94537e-06
0.0840122
7.35243e-06
0.0840022
1.73772e-05
0.0840541
4.39635e-05
0.0840455
0.000103711
0.0842565
0.000265506
0.0844559
0.000654557
0.0855961
0.00178323
0.0889706
0.00531561
0.100596
0.0185733
0.126813
0.0610966
0.129908
0.0954599
0.131749
0.0981909
0.129067
0.0983798
0.0919175
0.125297
0.0840003
5.57089e-11
0.0840003
3.60619e-10
0.0840003
1.2118e-09
0.0840003
3.51851e-09
0.0840003
8.94758e-09
0.0840003
2.28809e-08
0.0840004
5.59221e-08
0.0840004
1.36679e-07
0.0840006
3.36916e-07
0.0840013
8.03222e-07
0.0840008
2.00705e-06
0.0840078
4.7222e-06
0.0840003
1.18971e-05
0.0840494
2.78928e-05
0.084005
7.0639e-05
0.0842641
0.000167725
0.0842117
0.000429076
0.0852683
0.00108886
0.0871359
0.00307509
0.0961113
0.00982424
0.124174
0.03289
0.133034
0.0865881
0.133679
0.0975484
0.132363
0.0996996
0.0957142
0.12858
0.0840003
3.9321e-11
0.0840003
2.31331e-10
0.0840003
8.45543e-10
0.0840003
2.25674e-09
0.0840003
6.18468e-09
0.0840004
1.48765e-08
0.0840003
3.79735e-08
0.0840005
9.05874e-08
0.0840003
2.2434e-07
0.0840014
5.4243e-07
0.0840002
1.31206e-06
0.0840061
3.23852e-06
0.0840008
7.6781e-06
0.0840302
1.92711e-05
0.084012
4.52785e-05
0.084145
0.000115075
0.0841651
0.00027435
0.0847293
0.000710045
0.0857057
0.0018705
0.0900835
0.00562694
0.1037
0.0191555
0.130046
0.0602193
0.133477
0.0941142
0.135784
0.0973994
0.0977202
0.133787
0.0840003
2.38323e-11
0.0840003
1.56498e-10
0.0840003
5.24902e-10
0.0840003
1.52633e-09
0.0840003
3.87709e-09
0.0840003
9.916e-09
0.0840004
2.4014e-08
0.0840003
5.94461e-08
0.0840005
1.43383e-07
0.0840006
3.48851e-07
0.0840011
8.50541e-07
0.0840027
2.03817e-06
0.0840024
5.0259e-06
0.0840191
1.1932e-05
0.0840072
2.96667e-05
0.0841196
7.03561e-05
0.0840715
0.000176524
0.0845987
0.000429487
0.0850244
0.00111732
0.0878849
0.0030855
0.0969788
0.00982439
0.125489
0.0316909
0.136106
0.0834855
0.136746
0.0967644
0.0978158
0.136658
0.0840003
1.61251e-11
0.0840003
9.98784e-11
0.0840003
3.46171e-10
0.0840003
9.72383e-10
0.0840003
2.55199e-09
0.0840003
6.29643e-09
0.0840003
1.58887e-08
0.0840004
3.75179e-08
0.0840004
9.49084e-08
0.0840006
2.20016e-07
0.0840004
5.61576e-07
0.0840026
1.29172e-06
0.0840004
3.2968e-06
0.084015
7.62237e-06
0.0840003
1.93389e-05
0.0840857
4.52104e-05
0.0840207
0.00011409
0.0844125
0.000273915
0.0844649
0.000700371
0.0861492
0.00183833
0.0900948
0.00545372
0.103779
0.0182408
0.131869
0.0552787
0.137051
0.0915702
0.0961026
0.138767
0.0840003
9.70665e-12
0.0840003
6.36693e-11
0.0840003
2.15054e-10
0.0840003
6.20344e-10
0.0840003
1.5791e-09
0.0840003
4.04014e-09
0.0840003
9.65663e-09
0.0840004
2.42888e-08
0.0840004
5.68099e-08
0.0840005
1.43272e-07
0.0840007
3.31391e-07
0.084001
8.37742e-07
0.0840031
1.93466e-06
0.0840027
4.87718e-06
0.0840197
1.1318e-05
0.0840119
2.83481e-05
0.08412
6.66003e-05
0.0840968
0.000165982
0.0846198
0.000402622
0.0851235
0.00103207
0.0880681
0.00280686
0.0973816
0.00871456
0.125478
0.0272283
0.139029
0.0779625
0.0955113
0.139615
0.0840003
6.56111e-12
0.0840003
3.81436e-11
0.0840003
1.40273e-10
0.0840003
3.72175e-10
0.0840003
1.02626e-09
0.0840003
2.42512e-09
0.0840003
6.29557e-09
0.0840004
1.45393e-08
0.0840003
3.70549e-08
0.0840005
8.58134e-08
0.0840003
2.15183e-07
0.0840014
5.05951e-07
0.0840005
1.24509e-06
0.0840061
2.9833e-06
0.0840022
7.19186e-06
0.0840307
1.76144e-05
0.0840192
4.17274e-05
0.0841459
0.000104352
0.0841911
0.000247847
0.0847446
0.000633754
0.0857181
0.00162836
0.0898549
0.00474643
0.101408
0.0155549
0.132135
0.0471949
0.0874923
0.140136
0.0840003
3.73604e-12
0.0840003
2.45842e-11
0.0840003
8.20008e-11
0.0840003
2.39494e-10
0.0840003
6.02444e-10
0.0840003
1.54574e-09
0.0840003
3.72166e-09
0.0840003
9.15991e-09
0.0840004
2.20812e-08
0.0840003
5.32846e-08
0.0840006
1.29627e-07
0.0840004
3.08811e-07
0.0840017
7.57523e-07
0.0840014
1.78984e-06
0.0840065
4.42182e-06
0.0840106
1.03757e-05
0.0840269
2.57983e-05
0.0840739
6.05567e-05
0.0841534
0.000151186
0.0844489
0.000363688
0.0851237
0.000927903
0.0874058
0.00247467
0.0954443
0.00748885
0.119069
0.0235668
0.0670115
0.139482
0.0840003
2.24474e-12
0.0840003
1.504e-11
0.0840003
5.00699e-11
0.0840003
1.46355e-10
0.0840003
3.67603e-10
0.0840003
9.4967e-10
0.0840003
2.24378e-09
0.0840003
5.67469e-09
0.0840003
1.31789e-08
0.0840003
3.31455e-08
0.0840005
7.70629e-08
0.0840004
1.91628e-07
0.0840012
4.51186e-07
0.0840006
1.10487e-06
0.0840056
2.6409e-06
0.0840024
6.36376e-06
0.0840296
1.54753e-05
0.084017
3.67728e-05
0.0841489
9.08844e-05
0.0841657
0.000216363
0.0847488
0.000546472
0.0855562
0.00138315
0.0894022
0.00390746
0.100388
0.0123901
0.0371031
0.130249
0.0840003
1.45928e-12
0.0840003
8.66363e-12
0.0840003
3.15448e-11
0.0840003
8.442e-11
0.0840003
2.30425e-10
0.0840003
5.51276e-10
0.0840003
1.39821e-09
0.0840003
3.31187e-09
0.0840003
8.14257e-09
0.0840004
1.95269e-08
0.0840003
4.6891e-08
0.0840005
1.14568e-07
0.0840005
2.69832e-07
0.0840012
6.69972e-07
0.084002
1.55561e-06
0.084004
3.90266e-06
0.0840135
9.01958e-06
0.0840145
2.26803e-05
0.0840881
5.26501e-05
0.0840878
0.000132472
0.0844746
0.000314699
0.0848265
0.000802626
0.0868883
0.00208635
0.0929252
0.00615283
0.0193375
0.110751
0.0840003
8.2614e-13
0.0840003
5.31537e-12
0.0840003
1.79962e-11
0.0840003
5.17666e-11
0.0840003
1.31819e-10
0.0840003
3.32927e-10
0.0840003
8.1129e-10
0.0840003
1.95606e-09
0.0840003
4.79416e-09
0.0840003
1.12631e-08
0.0840004
2.79882e-08
0.0840004
6.46441e-08
0.0840005
1.62071e-07
0.0840009
3.72312e-07
0.0840009
9.33251e-07
0.0840045
2.14929e-06
0.084003
5.34661e-06
0.0840269
1.245e-05
0.0840158
3.05965e-05
0.0841546
7.23428e-05
0.0841293
0.000176747
0.0847931
0.000429892
0.0853648
0.0010833
0.0890545
0.00292081
0.00886116
0.0991962
0.0840003
4.90312e-13
0.0840003
3.05506e-12
0.0840003
1.07326e-11
0.0840003
2.97517e-11
0.0840003
7.83542e-11
0.0840003
1.92861e-10
0.0840003
4.75035e-10
0.0840003
1.15017e-09
0.0840003
2.75444e-09
0.0840003
6.7106e-09
0.0840004
1.58475e-08
0.0840004
3.88479e-08
0.0840005
9.10618e-08
0.0840004
2.23773e-07
0.0840014
5.24673e-07
0.0840009
1.28576e-06
0.0840066
3.02068e-06
0.0840042
7.38344e-06
0.0840346
1.74295e-05
0.0840283
4.2406e-05
0.0841713
0.000101338
0.0842341
0.00024679
0.0848923
0.000607891
0.0859885
0.00155818
0.00439613
0.0907051
0.0840003
2.76208e-13
0.0840003
1.80575e-12
0.0840003
6.08928e-12
0.0840003
1.75468e-11
0.0840003
4.45249e-11
0.0840003
1.12883e-10
0.0840003
2.71386e-10
0.0840003
6.65909e-10
0.0840003
1.58911e-09
0.0840003
3.84406e-09
0.0840003
9.18402e-09
0.0840003
2.21222e-08
0.0840004
5.29865e-08
0.0840004
1.26867e-07
0.0840009
3.05051e-07
0.0840009
7.28728e-07
0.0840031
1.75842e-06
0.084005
4.17761e-06
0.0840127
1.01399e-05
0.0840336
2.40594e-05
0.0840597
5.85501e-05
0.0842077
0.000139938
0.084386
0.000343839
0.0852105
0.000850289
0.00223607
0.0872359
0.0840003
1.57459e-13
0.0840003
1.01507e-12
0.0840003
3.46228e-12
0.0840003
9.88382e-12
0.0840003
2.52829e-11
0.0840003
6.38028e-11
0.0840003
1.52851e-10
0.0840003
3.78256e-10
0.0840003
8.8512e-10
0.0840003
2.1927e-09
0.0840003
5.07991e-09
0.0840003
1.25848e-08
0.0840004
2.91908e-08
0.0840004
7.18303e-08
0.0840007
1.67989e-07
0.0840006
4.08316e-07
0.0840021
9.66717e-07
0.0840029
2.31509e-06
0.0840085
5.5642e-06
0.0840193
1.31272e-05
0.0840384
3.19722e-05
0.0841275
7.48751e-05
0.0842191
0.000184755
0.0847537
0.000439605
0.00112021
0.0856757
0.0840003
8.88916e-14
0.0840003
5.7915e-13
0.0840003
1.96817e-12
0.0840003
5.62832e-12
0.0840003
1.43872e-11
0.0840003
3.59789e-11
0.0840003
8.78551e-11
0.0840003
2.10314e-10
0.0840003
5.13154e-10
0.0840003
1.20251e-09
0.0840003
2.96314e-09
0.0840003
6.85624e-09
0.0840003
1.69656e-08
0.0840004
3.91806e-08
0.0840004
9.68379e-08
0.0840008
2.24396e-07
0.0840007
5.49453e-07
0.084003
1.28902e-06
0.0840023
3.11456e-06
0.0840156
7.39813e-06
0.0840131
1.763e-05
0.0840839
4.25882e-05
0.0840858
0.000100503
0.0844298
0.000247002
0.000594544
0.0847064
0.0840003
4.98815e-14
0.0840003
3.25601e-13
0.0840003
1.09266e-12
0.0840003
3.15642e-12
0.0840003
7.96848e-12
0.0840003
2.03165e-11
0.0840003
4.81468e-11
0.0840003
1.19607e-10
0.0840003
2.78873e-10
0.0840003
6.8717e-10
0.0840003
1.60072e-09
0.0840003
3.91232e-09
0.0840003
9.19203e-09
0.0840003
2.21933e-08
0.0840004
5.27464e-08
0.0840004
1.25799e-07
0.0840009
3.02867e-07
0.084001
7.13068e-07
0.0840033
1.73404e-06
0.0840051
4.04901e-06
0.084014
9.93144e-06
0.084034
2.30401e-05
0.0840662
5.68584e-05
0.0842094
0.000132875
0.000329431
0.0844072
0.0840003
2.86526e-14
0.0840003
1.71962e-13
0.0840003
6.22042e-13
0.0840003
1.68957e-12
0.0840003
4.50221e-12
0.0840003
1.09105e-11
0.0840003
2.70377e-11
0.0840003
6.44651e-11
0.0840003
1.55039e-10
0.0840003
3.73432e-10
0.0840003
8.79428e-10
0.0840003
2.14026e-09
0.0840003
4.98527e-09
0.0840003
1.22248e-08
0.0840004
2.82459e-08
0.0840004
6.96001e-08
0.0840006
1.60385e-07
0.0840007
3.94358e-07
0.0840023
9.13839e-07
0.0840019
2.2266e-06
0.0840121
5.21018e-06
0.08401
1.25532e-05
0.0840665
2.98088e-05
0.0840648
7.0905e-05
0.000171675
0.0843504
0.0840003
1.46892e-14
0.0840003
9.55919e-14
0.0840003
3.32867e-13
0.0840003
9.26738e-13
0.0840003
2.42683e-12
0.0840003
5.95039e-12
0.0840003
1.46869e-11
0.0840003
3.47474e-11
0.0840003
8.51246e-11
0.0840003
1.98464e-10
0.0840003
4.84974e-10
0.0840003
1.13203e-09
0.0840003
2.74283e-09
0.0840003
6.4483e-09
0.0840003
1.54938e-08
0.0840004
3.66382e-08
0.0840004
8.7468e-08
0.0840008
2.08209e-07
0.0840008
4.9282e-07
0.0840027
1.18103e-06
0.0840036
2.7778e-06
0.0840114
6.69579e-06
0.0840237
1.56573e-05
0.0840521
3.79314e-05
8.89242e-05
0.084152
0.0840003
8.39259e-15
0.0840003
5.32643e-14
0.0840003
1.75579e-13
0.0840003
5.14998e-13
0.0840003
1.2823e-12
0.0840003
3.25669e-12
0.0840003
7.76343e-12
0.0840003
1.89181e-11
0.0840003
4.50397e-11
0.0840003
1.07037e-10
0.0840003
2.58292e-10
0.0840003
6.02122e-10
0.0840003
1.47391e-09
0.0840003
3.38926e-09
0.0840003
8.34663e-09
0.0840004
1.91523e-08
0.0840004
4.7028e-08
0.0840006
1.08523e-07
0.0840005
2.63821e-07
0.0840017
6.16185e-07
0.0840017
1.47684e-06
0.0840079
3.50473e-06
0.0840091
8.25363e-06
0.0840374
1.99264e-05
4.63187e-05
0.0840634
0.0840003
4.32206e-15
0.0840003
2.63676e-14
0.0840003
9.16652e-14
0.0840003
2.6586e-13
0.0840003
6.79373e-13
0.0840003
1.70448e-12
0.0840003
4.06641e-12
0.0840003
9.96641e-12
0.0840003
2.31497e-11
0.0840003
5.69018e-11
0.0840003
1.30565e-10
0.0840003
3.21212e-10
0.0840003
7.35627e-10
0.0840003
1.80272e-09
0.0840003
4.15773e-09
0.0840003
1.00735e-08
0.0840004
2.35134e-08
0.0840004
5.60933e-08
0.0840006
1.33177e-07
0.0840007
3.11701e-07
0.0840018
7.51643e-07
0.084003
1.73238e-06
0.0840071
4.22988e-06
0.0840189
9.64986e-06
2.36821e-05
0.0840317
0.0840003
1.91145e-15
0.0840003
1.41378e-14
0.0840003
4.93594e-14
0.0840003
1.30813e-13
0.0840003
3.46802e-13
0.0840003
8.35758e-13
0.0840003
2.0733e-12
0.0840003
4.81338e-12
0.0840003
1.18551e-11
0.0840003
2.69977e-11
0.0840003
6.6495e-11
0.0840003
1.50858e-10
0.0840003
3.69134e-10
0.0840003
8.4069e-10
0.0840003
2.03631e-09
0.0840003
4.67714e-09
0.0840003
1.11641e-08
0.0840004
2.60152e-08
0.0840004
6.07787e-08
0.0840006
1.44214e-07
0.0840011
3.2956e-07
0.0840014
7.94336e-07
0.0840056
1.78167e-06
0.0840057
4.33246e-06
9.60862e-06
0.0840329
0.0840003
9.13115e-16
0.0840003
6.70709e-15
0.0840003
2.13347e-14
0.0840003
6.61957e-14
0.0840003
1.61181e-13
0.0840003
4.07978e-13
0.0840003
9.51954e-13
0.0840003
2.34161e-12
0.0840003
5.29738e-12
0.0840003
1.31487e-11
0.0840003
2.90689e-11
0.0840003
7.25612e-11
0.0840003
1.59054e-10
0.0840003
3.96421e-10
0.0840003
8.70799e-10
0.0840003
2.13412e-09
0.0840003
4.77038e-09
0.0840003
1.13797e-08
0.0840004
2.60274e-08
0.0840004
5.97263e-08
0.0840008
1.41447e-07
0.0840007
3.10264e-07
0.0840027
7.58028e-07
0.0840037
1.58398e-06
4.01779e-06
0.0840101
0.0840003
-5.11743e-17
0.0840003
9.59302e-16
0.0840003
7.01674e-15
0.0840003
2.13091e-14
0.0840003
6.15133e-14
0.0840003
1.51308e-13
0.0840003
3.79881e-13
0.0840003
8.77428e-13
0.0840003
2.14138e-12
0.0840003
4.77561e-12
0.0840003
1.18159e-11
0.0840003
2.56939e-11
0.0840003
6.43293e-11
0.0840003
1.37056e-10
0.0840003
3.46192e-10
0.0840003
7.29174e-10
0.0840003
1.83536e-09
0.0840003
3.87045e-09
0.0840003
9.52431e-09
0.0840004
2.05784e-08
0.0840005
4.83799e-08
0.0840005
1.08314e-07
0.0840016
2.3998e-07
0.0839999
5.62437e-07
1.16956e-06
0.0840094
0.0840003
0.0840003
0.0840003
0.0840003
0.0840003
0.0840003
0.0840003
0.0840003
0.0840003
0.0840003
0.0840003
0.0840003
0.0840003
0.0840003
0.0840003
0.0840003
0.0840003
0.0840003
0.0840004
0.0840003
0.0840005
0.084
0.0840018
0.0839981
0.0840091
0.0484802
0.0405172
0.0322766
0.0162061
0.0253257
0.0069501
0.0225496
0.0027711
0.0223666
0.000171358
0.0242601
-0.00190098
0.0264475
-0.00219647
0.0276783
-0.00123865
0.0280992
-0.000429665
0.0280406
4.96635e-05
0.0277885
0.000240957
0.0276349
0.000141889
0.0275787
4.26521e-05
0.0276307
-6.60132e-05
0.0277167
-0.00010039
0.0277802
-8.00951e-05
0.0277997
-4.16556e-05
0.0277757
1.77949e-06
0.0277324
2.04341e-05
0.0276802
2.85692e-05
0.0276245
2.90642e-05
0.0275597
3.18035e-05
0.0274635
4.93492e-05
0.027288
0.000100127
0.0269301
0.00021971
0.0261688
0.0004891
0.024502
0.00111444
0.0204981
0.00274881
0.0107911
0.00728759
0.000349197
0.00940653
-0.00697279
0.0074189
-0.0127463
0.00612429
-0.0169584
0.00447282
-0.0199427
0.00310763
-0.0216026
0.00163153
-0.0218328
0.000177407
-0.0211662
-0.000742868
-0.0199347
-0.00131113
-0.0179214
-0.00210835
-0.0148066
-0.00322828
-0.0111611
-0.00375331
-0.00727075
-0.00398649
-0.00333606
-0.00401788
0.000714409
-0.00412789
0.00438789
-0.00373885
0.00769735
-0.00336739
0.0107257
-0.00308531
0.013502
-0.00284061
0.0160369
-0.00260614
0.0183368
-0.0023774
0.0204734
-0.00222564
0.0225302
-0.00215042
0.0244647
-0.00202482
0.0262683
-0.00188629
0.0279608
-0.00176196
0.029547
-0.00164288
0.0310425
-0.00154006
0.0324508
-0.0014419
0.0337833
-0.00135621
0.0350408
-0.00127309
0.0362336
-0.00119911
0.0373611
-0.00112661
0.0384291
-0.00106144
0.0394365
-0.000997676
0.0403869
-0.000940376
0.0412792
-0.000884221
0.0421189
-0.00083327
0.0429049
-0.000782713
0.0436447
-0.000735896
0.0443372
-0.00068894
0.0449894
-0.000644868
0.0456
-0.000600708
0.0461746
-0.000559271
0.0467117
-0.000518048
0.0472157
-0.000479625
0.0476851
-0.000441582
0.0481224
-0.000406366
0.0485283
-0.000371507
0.0489022
-0.000339448
0.0492473
-0.000307654
0.049561
-0.000278647
0.0498479
-0.000249791
0.0501049
-0.000223519
0.0503374
-0.000197261
0.050542
-0.000173649
0.0507249
-0.000150029
0.0508824
-0.00012886
0.0510212
-0.000108003
0.0511369
-8.85796e-05
0.0512344
-6.90594e-05
0.0513121
-5.18941e-05
0.0513719
-3.51609e-05
0.0514156
-1.91125e-05
0.0514368
-2.31716e-06
0.0514482
9.55472e-06
0.0514387
2.30332e-05
0.051412
3.9839e-05
0.051359
6.09321e-05
0.0512708
9.29668e-05
0.000132991
0.0637379
0.0600557
0.0493207
0.0306255
0.0420931
0.0141762
0.0392087
0.00565181
0.0380532
0.00132761
0.0370554
-0.000908089
0.0363667
-0.00151447
0.0366861
-0.00156502
0.0374572
-0.00120898
0.0381849
-0.000685432
0.0387163
-0.000299222
0.0389206
-7.13983e-05
0.0389157
3.61717e-05
0.0388104
2.68147e-05
0.0387066
-1.05018e-05
0.038672
-6.02568e-05
0.0386913
-7.36345e-05
0.0387436
-6.80403e-05
0.0387789
-3.44484e-05
0.0387913
-5.46728e-06
0.038776
2.09218e-05
0.0387291
4.83435e-05
0.0386473
8.88001e-05
0.0385178
0.000161354
0.0383015
0.000311447
0.0378874
0.00065372
0.0370518
0.0014379
0.0353327
0.00333414
0.0316899
0.00845707
0.0239049
0.0160227
0.0171373
0.0144227
0.011472
0.0121839
0.00663213
0.00971119
0.0024829
0.00748427
-0.00106212
0.00529236
-0.00364875
0.00281445
-0.00420705
-0.000157453
-0.00275667
-0.00280649
0.000220664
-0.00521279
0.00359891
-0.00673866
0.0073059
-0.00759902
0.0110237
-0.00782269
0.0146425
-0.00772958
0.017884
-0.00744325
0.0210603
-0.00697791
0.0240667