/*--------------------------------*- C++ -*----------------------------------*\
  =========                 |
  \\      /  F ield         | OpenFOAM: The Open Source CFD Toolbox
   \\    /   O peration     | Website:  https://openfoam.org
    \\  /    A nd           | Version:  13
     \\/     M anipulation  |
\*---------------------------------------------------------------------------*/
FoamFile
{
    format      ascii;
    class       volVectorField;
    location    "3";
    object      U;
}
// * * * * * * * * * * * * * * * * * * * * * * * * * * * * * * * * * * * * * //

dimensions      [0 1 -1 0 0 0 0];

internalField   nonuniform List<vector> 
5250
(
(3 2.40875e-08 0)
(2.99999 2.48518e-08 0)
(2.99996 4.12231e-07 0)
(2.99991 1.68807e-07 0)
(2.99978 3.12547e-06 0)
(2.99945 1.04818e-06 0)
(2.99865 2.01e-05 0)
(2.99666 1.1486e-05 0)
(2.99174 0.00010927 0)
(2.97936 0.000134194 0)
(2.94732 0.000549229 0)
(2.85937 0.00117718 0)
(2.60501 0.00348663 0)
(1.85964 0.00983232 0)
(0.864952 0.0266475 0)
(0.449424 0.0246107 0)
(0.53642 0.0247264 0)
(0.559455 0.0266318 0)
(0.504333 0.0285634 0)
(0.413215 0.030539 0)
(0.327801 0.0328901 0)
(0.258648 0.0355494 0)
(0.188768 0.0380805 0)
(0.110061 0.0402335 0)
(0.0460469 0.0422802 0)
(3 5.03017e-08 0)
(2.99999 1.6008e-07 0)
(2.99997 1.02986e-06 0)
(2.99991 1.52614e-06 0)
(2.99978 7.43442e-06 0)
(2.99946 1.12796e-05 0)
(2.99866 4.43931e-05 0)
(2.99673 7.92108e-05 0)
(2.99184 0.000254888 0)
(2.97973 0.000549881 0)
(2.94818 0.00151913 0)
(2.86184 0.00382053 0)
(2.61209 0.0106631 0)
(1.87834 0.0305966 0)
(0.875543 0.0812099 0)
(0.445879 0.0710016 0)
(0.536258 0.0680013 0)
(0.560511 0.0710672 0)
(0.505106 0.0741897 0)
(0.414082 0.0774802 0)
(0.328788 0.0811361 0)
(0.259315 0.0849033 0)
(0.188906 0.0879263 0)
(0.109437 0.0897115 0)
(0.0445873 0.0895807 0)
(3 5.88785e-08 0)
(2.99999 4.02801e-07 0)
(2.99997 1.3073e-06 0)
(2.99992 4.04503e-06 0)
(2.99979 9.67049e-06 0)
(2.99948 2.74682e-05 0)
(2.99871 6.10164e-05 0)
(2.99683 0.000167788 0)
(2.99213 0.000385202 0)
(2.98042 0.00100357 0)
(2.95002 0.00247498 0)
(2.86708 0.00653081 0)
(2.62717 0.0179887 0)
(1.92021 0.0518971 0)
(0.901 0.139536 0)
(0.44286 0.120645 0)
(0.53989 0.114261 0)
(0.567 0.119559 0)
(0.511538 0.125442 0)
(0.42097 0.132224 0)
(0.335827 0.139046 0)
(0.265721 0.145819 0)
(0.194148 0.151651 0)
(0.112902 0.155367 0)
(0.0455287 0.15502 0)
(3 6.85177e-08 0)
(2.99999 6.19782e-07 0)
(2.99997 1.61175e-06 0)
(2.99992 6.10389e-06 0)
(2.9998 1.22936e-05 0)
(2.99951 3.94994e-05 0)
(2.99878 8.0072e-05 0)
(2.997 0.000238041 0)
(2.99254 0.000509758 0)
(2.98147 0.00140718 0)
(2.9528 0.00332831 0)
(2.87477 0.00897536 0)
(2.65019 0.0244833 0)
(1.98407 0.0709204 0)
(0.94207 0.1944 0)
(0.442422 0.169735 0)
(0.548479 0.159978 0)
(0.580028 0.167323 0)
(0.524796 0.176115 0)
(0.434808 0.186993 0)
(0.349395 0.197465 0)
(0.27829 0.20776 0)
(0.204941 0.217151 0)
(0.120407 0.223718 0)
(0.0484548 0.223865 0)
(3 1.05921e-07 0)
(2.99999 6.1186e-07 0)
(2.99997 2.32692e-06 0)
(2.99992 5.93842e-06 0)
(2.99982 1.72339e-05 0)
(2.99954 4.02771e-05 0)
(2.99887 0.000107642 0)
(2.99719 0.000256922 0)
(2.9931 0.000654964 0)
(2.98277 0.00161492 0)
(2.95635 0.00411688 0)
(2.8847 0.010694 0)
(2.67936 0.0295535 0)
(2.0686 0.0855897 0)
(1.00002 0.24143 0)
(0.450091 0.220026 0)
(0.563831 0.207797 0)
(0.600493 0.215786 0)
(0.545804 0.226572 0)
(0.456505 0.241387 0)
(0.370173 0.255798 0)
(0.297421 0.270246 0)
(0.221474 0.284127 0)
(0.132138 0.29486 0)
(0.0535168 0.296739 0)
(3 1.09744e-07 0)
(2.99999 6.73844e-07 0)
(2.99997 2.39824e-06 0)
(2.99993 6.57513e-06 0)
(2.99983 1.79267e-05 0)
(2.99958 4.44004e-05 0)
(2.99896 0.000112797 0)
(2.99746 0.000280284 0)
(2.99367 0.000694343 0)
(2.98436 0.00174927 0)
(2.96035 0.00438546 0)
(2.8961 0.0114759 0)
(2.71305 0.0314799 0)
(2.16989 0.0912294 0)
(1.08138 0.265583 0)
(0.480254 0.266436 0)
(0.591139 0.258502 0)
(0.630849 0.266557 0)
(0.576871 0.27844 0)
(0.488357 0.296841 0)
(0.400391 0.315761 0)
(0.325195 0.335392 0)
(0.245776 0.355358 0)
(0.149863 0.372663 0)
(0.0616448 0.378912 0)
(3 9.00796e-08 0)
(2.99999 7.27028e-07 0)
(2.99998 2.06032e-06 0)
(2.99994 7.11169e-06 0)
(2.99985 1.55101e-05 0)
(2.99962 4.60913e-05 0)
(2.99907 9.94261e-05 0)
(2.99768 0.0002802 0)
(2.99433 0.000623339 0)
(2.98585 0.00168686 0)
(2.96446 0.00399246 0)
(2.90738 0.0106216 0)
(2.74633 0.0284242 0)
(2.27215 0.0814033 0)
(1.18348 0.240709 0)
(0.532228 0.299089 0)
(0.626727 0.310428 0)
(0.665861 0.318475 0)
(0.614263 0.331355 0)
(0.528536 0.353732 0)
(0.439822 0.378345 0)
(0.362342 0.404595 0)
(0.279448 0.432705 0)
(0.176037 0.460188 0)
(0.0748195 0.476174 0)
(3 1.07191e-07 0)
(2.99999 5.697e-07 0)
(2.99998 2.25826e-06 0)
(2.99994 5.54762e-06 0)
(2.99986 1.66171e-05 0)
(2.99965 3.68935e-05 0)
(2.99915 0.000103412 0)
(2.99789 0.000228548 0)
(2.99484 0.000618494 0)
(2.98717 0.00142165 0)
(2.96781 0.00369756 0)
(2.91642 0.00919261 0)
(2.7721 0.0247269 0)
(2.34634 0.0690977 0)
(1.28557 0.203758 0)
(0.575731 0.338405 0)
(0.642514 0.371934 0)
(0.682507 0.370751 0)
(0.643366 0.383732 0)
(0.568011 0.410166 0)
(0.483559 0.4424 0)
(0.407158 0.477543 0)
(0.323581 0.516871 0)
(0.214425 0.560218 0)
(0.0967445 0.59755 0)
(3 9.89607e-08 0)
(2.99999 5.63227e-07 0)
(2.99998 2.14071e-06 0)
(2.99995 5.48429e-06 0)
(2.99987 1.58378e-05 0)
(2.99969 3.69072e-05 0)
(2.99923 9.78995e-05 0)
(2.9981 0.000229673 0)
(2.99532 0.000583843 0)
(2.98841 0.00141145 0)
(2.97092 0.00353085 0)
(2.92489 0.00893197 0)
(2.79586 0.023699 0)
(2.41725 0.066223 0)
(1.41544 0.194987 0)
(0.655096 0.388657 0)
(0.650542 0.422053 0)
(0.68109 0.418021 0)
(0.664184 0.43438 0)
(0.605041 0.463694 0)
(0.530214 0.505055 0)
(0.459261 0.551576 0)
(0.380617 0.605557 0)
(0.273362 0.674998 0)
(0.135975 0.758069 0)
(3 8.89024e-08 0)
(2.99999 6.09128e-07 0)
(2.99998 1.96155e-06 0)
(2.99995 5.95791e-06 0)
(2.99989 1.45206e-05 0)
(2.99972 3.94152e-05 0)
(2.99931 9.15729e-05 0)
(2.9983 0.000242341 0)
(2.99582 0.000564476 0)
(2.98962 0.00146217 0)
(2.97407 0.00352049 0)
(2.93325 0.00909413 0)
(2.81962 0.0238125 0)
(2.48797 0.0666194 0)
(1.56974 0.19471 0)
(0.755526 0.436659 0)
(0.657721 0.454202 0)
(0.685979 0.456474 0)
(0.684105 0.479214 0)
(0.641119 0.512771 0)
(0.581125 0.5626 0)
(0.52029 0.621388 0)
(0.456772 0.697049 0)
(0.370131 0.812021 0)
(0.209444 1.01951 0)
(3 1.02373e-07 0)
(2.99999 5.88029e-07 0)
(2.99998 2.15376e-06 0)
(2.99996 5.7451e-06 0)
(2.9999 1.59011e-05 0)
(2.99975 3.8161e-05 0)
(2.9994 0.000100634 0)
(2.9985 0.000235635 0)
(2.99634 0.000617802 0)
(2.99087 0.00144634 0)
(2.97729 0.00375125 0)
(2.94177 0.00924936 0)
(2.84381 0.0246046 0)
(2.5594 0.0680893 0)
(1.74485 0.197966 0)
(0.874774 0.484669 0)
(0.666832 0.487992 0)
(0.69787 0.490881 0)
(0.709041 0.515506 0)
(0.680161 0.555199 0)
(0.63669 0.610792 0)
(0.594948 0.681186 0)
(0.566083 0.777558 0)
(0.56533 0.924462 0)
(0.606223 1.17263 0)
(3 9.61714e-08 0)
(2.99999 6.27004e-07 0)
(2.99999 2.08742e-06 0)
(2.99997 6.12063e-06 0)
(2.99991 1.56357e-05 0)
(2.99979 4.0335e-05 0)
(2.99948 0.000100244 0)
(2.99873 0.000247492 0)
(2.99683 0.000619706 0)
(2.99223 0.00151695 0)
(2.98057 0.0038005 0)
(2.95062 0.00958307 0)
(2.86872 0.0250689 0)
(2.63273 0.0693757 0)
(1.94141 0.200936 0)
(1.01678 0.52764 0)
(0.686616 0.525642 0)
(0.718553 0.526623 0)
(0.740951 0.546508 0)
(0.724901 0.589939 0)
(0.697603 0.649199 0)
(0.678953 0.727312 0)
(0.686518 0.832706 0)
(0.74933 0.977597 0)
(0.903964 1.16748 0)
(3 9.34902e-08 0)
(3 6.06103e-07 0)
(2.99999 2.03146e-06 0)
(2.99997 5.94271e-06 0)
(2.99993 1.51852e-05 0)
(2.99982 3.93751e-05 0)
(2.99957 9.65457e-05 0)
(2.99893 0.000243735 0)
(2.9974 0.000598072 0)
(2.99352 0.00149818 0)
(2.98402 0.00372541 0)
(2.95948 0.009414 0)
(2.89379 0.0245427 0)
(2.70671 0.0674729 0)
(2.15404 0.195458 0)
(1.18991 0.546689 0)
(0.737242 0.567787 0)
(0.756392 0.57245 0)
(0.783392 0.580074 0)
(0.778774 0.620159 0)
(0.764244 0.679928 0)
(0.765615 0.758088 0)
(0.799158 0.85836 0)
(0.889317 0.980067 0)
(1.06712 1.09976 0)
(3 8.60908e-08 0)
(3 5.18757e-07 0)
(2.99999 1.84491e-06 0)
(2.99998 5.08264e-06 0)
(2.99994 1.36876e-05 0)
(2.99986 3.38054e-05 0)
(2.99965 8.63857e-05 0)
(2.99915 0.000208531 0)
(2.99788 0.000528458 0)
(2.99484 0.00127493 0)
(2.98717 0.00323138 0)
(2.96797 0.00795668 0)
(2.91725 0.0206376 0)
(2.77621 0.0554652 0)
(2.36609 0.158611 0)
(1.41053 0.468401 0)
(0.838724 0.591033 0)
(0.816503 0.615585 0)
(0.834555 0.621865 0)
(0.841559 0.651836 0)
(0.835939 0.705538 0)
(0.848682 0.776313 0)
(0.895796 0.861894 0)
(0.99242 0.9565 0)
(1.16108 1.03318 0)
(3 6.45421e-08 0)
(3 4.58689e-07 0)
(2.99999 1.45486e-06 0)
(2.99998 4.45727e-06 0)
(2.99995 1.08059e-05 0)
(2.99988 2.9374e-05 0)
(2.99972 6.75875e-05 0)
(2.9993 0.000179756 0)
(2.99829 0.000410079 0)
(2.99578 0.00107604 0)
(2.98958 0.00250131 0)
(2.97399 0.00643071 0)
(2.93335 0.0158615 0)
(2.82099 0.0420833 0)
(2.4962 0.116254 0)
(1.62636 0.346223 0)
(0.936606 0.624764 0)
(0.857784 0.657466 0)
(0.87427 0.669361 0)
(0.894435 0.686013 0)
(0.902348 0.728479 0)
(0.923475 0.787679 0)
(0.976037 0.856599 0)
(1.07026 0.927729 0)
(1.22118 0.980449 0)
(3 6.0188e-08 0)
(3 3.8014e-07 0)
(2.99999 1.31058e-06 0)
(2.99998 3.69722e-06 0)
(2.99996 9.71792e-06 0)
(2.99991 2.43722e-05 0)
(2.99977 6.09303e-05 0)
(2.99943 0.000149933 0)
(2.99863 0.00036952 0)
(2.99658 0.000909968 0)
(2.99163 0.00223509 0)
(2.97909 0.00554208 0)
(2.94686 0.0139161 0)
(2.85867 0.0362929 0)
(2.60521 0.0998368 0)
(1.88107 0.29122 0)
(1.08656 0.666805 0)
(0.888186 0.693229 0)
(0.901231 0.705868 0)
(0.932247 0.713876 0)
(0.957805 0.746499 0)
(0.987604 0.794843 0)
(1.04219 0.849553 0)
(1.13096 0.902802 0)
(1.2634 0.940513 0)
(3 5.5203e-08 0)
(3 3.2249e-07 0)
(3 1.16943e-06 0)
(2.99999 3.1543e-06 0)
(2.99997 8.67951e-06 0)
(2.99993 2.09099e-05 0)
(2.99982 5.50294e-05 0)
(2.99956 0.000128847 0)
(2.99892 0.00033713 0)
(2.99733 0.000789876 0)
(2.99344 0.00205008 0)
(2.98372 0.00491449 0)
(2.95893 0.0126644 0)
(2.89231 0.0325106 0)
(2.70345 0.0894202 0)
(2.14696 0.258607 0)
(1.28224 0.681219 0)
(0.939178 0.725185 0)
(0.935903 0.734142 0)
(0.96836 0.737624 0)
(1.00705 0.759029 0)
(1.04363 0.798033 0)
(1.098 0.842182 0)
(1.18005 0.882892 0)
(1.29575 0.910464 0)
(3 4.43934e-08 0)
(3 2.69496e-07 0)
(3 9.5611e-07 0)
(2.99999 2.63416e-06 0)
(2.99998 7.08818e-06 0)
(2.99994 1.75161e-05 0)
(2.99986 4.45687e-05 0)
(2.99967 0.000107874 0)
(2.99918 0.000272034 0)
(2.99801 0.000657547 0)
(2.99507 0.00165295 0)
(2.98795 0.00403354 0)
(2.96984 0.0101797 0)
(2.92268 0.0259337 0)
(2.79292 0.0698541 0)
(2.41648 0.199312 0)
(1.5526 0.576869 0)
(1.05 0.732314 0)
(0.995918 0.756663 0)
(1.0138 0.765427 0)
(1.05542 0.774736 0)
(1.09685 0.802435 0)
(1.14858 0.836784 0)
(1.22254 0.867977 0)
(1.32323 0.888252 0)
(3 3.36024e-08 0)
(3 2.1572e-07 0)
(3 7.41353e-07 0)
(2.99999 2.10096e-06 0)
(2.99998 5.46758e-06 0)
(2.99996 1.39256e-05 0)
(2.9999 3.38474e-05 0)
(2.99975 8.56033e-05 0)
(2.99938 0.000202652 0)
(2.99848 0.000517225 0)
(2.99625 0.00121283 0)
(2.99083 0.00309648 0)
(2.97717 0.00739962 0)
(2.94196 0.018931 0)
(2.84605 0.0488153 0)
(2.57122 0.134832 0)
(1.82423 0.400344 0)
(1.17064 0.737475 0)
(1.04467 0.777342 0)
(1.05231 0.79455 0)
(1.09357 0.796713 0)
(1.14185 0.811442 0)
(1.19301 0.835632 0)
(1.25998 0.858619 0)
(1.34798 0.873021 0)
(3 2.82439e-08 0)
(3 1.70082e-07 0)
(3 6.06701e-07 0)
(2.99999 1.65638e-06 0)
(2.99999 4.48566e-06 0)
(2.99997 1.09495e-05 0)
(2.99992 2.80344e-05 0)
(2.99981 6.74145e-05 0)
(2.99954 0.000168894 0)
(2.99885 0.000409895 0)
(2.99722 0.00101384 0)
(2.9931 0.00249114 0)
(2.98301 0.00616567 0)
(2.95705 0.0154222 0)
(2.88753 0.0399585 0)
(2.69081 0.108735 0)
(2.11714 0.316962 0)
(1.35261 0.756614 0)
(1.09436 0.809271 0)
(1.08747 0.821718 0)
(1.1231 0.820231 0)
(1.17736 0.822056 0)
(1.23106 0.836966 0)
(1.29306 0.853292 0)
(1.37076 0.863114 0)
(3 2.09689e-08 0)
(3 1.37378e-07 0)
(3 4.56069e-07 0)
(3 1.33824e-06 0)
(2.99999 3.39094e-06 0)
(2.99998 8.76898e-06 0)
(2.99994 2.13952e-05 0)
(2.99986 5.33864e-05 0)
(2.99966 0.000130905 0)
(2.99919 0.000320279 0)
(2.99799 0.000796045 0)
(2.99513 0.00193342 0)
(2.98794 0.00483517 0)
(2.9701 0.0119465 0)
(2.92339 0.0306919 0)
(2.79567 0.0821374 0)
(2.42455 0.235202 0)
(1.63077 0.651535 0)
(1.20008 0.810725 0)
(1.14381 0.836247 0)
(1.16066 0.842667 0)
(1.21115 0.83717 0)
(1.26706 0.841989 0)
(1.32464 0.851569 0)
(1.39325 0.857315 0)
(3 1.57334e-08 0)
(3 1.01434e-07 0)
(3 3.45822e-07 0)
(3 9.87437e-07 0)
(2.99999 2.55222e-06 0)
(2.99998 6.51282e-06 0)
(2.99996 1.5836e-05 0)
(2.9999 3.97855e-05 0)
(2.99976 9.49188e-05 0)
(2.99941 0.000238885 0)
(2.99856 0.000566296 0)
(2.99647 0.0014269 0)
(2.99135 0.00340132 0)
(2.97857 0.00856039 0)
(2.94584 0.021124 0)
(2.85742 0.0553002 0)
(2.60641 0.151499 0)
(1.92929 0.446811 0)
(1.33101 0.797582 0)
(1.19695 0.846788 0)
(1.1975 0.865722 0)
(1.23912 0.860471 0)
(1.29684 0.853184 0)
(1.3532 0.854216 0)
(1.41529 0.855634 0)
(3 1.24933e-08 0)
(3 7.39908e-08 0)
(3 2.67774e-07 0)
(3 7.21503e-07 0)
(3 1.97153e-06 0)
(2.99999 4.77645e-06 0)
(2.99997 1.22552e-05 0)
(2.99993 2.93027e-05 0)
(2.99983 7.34966e-05 0)
(2.99958 0.000177078 0)
(2.99898 0.000438228 0)
(2.99749 0.00106797 0)
(2.99388 0.00262256 0)
(2.98485 0.00647837 0)
(2.9621 0.0160896 0)
(2.90177 0.0413804 0)
(2.73321 0.111443 0)
(2.24318 0.323635 0)
(1.53457 0.771247 0)
(1.2636 0.864353 0)
(1.23906 0.884272 0)
(1.26307 0.8836 0)
(1.31746 0.869922 0)
(1.37677 0.862364 0)
(1.43602 0.85874 0)
(3 8.87829e-09 0)
(3 5.607e-08 0)
(3 1.91602e-07 0)
(3 5.46026e-07 0)
(3 1.41363e-06 0)
(2.99999 3.58591e-06 0)
(2.99998 8.83942e-06 0)
(2.99995 2.18228e-05 0)
(2.99988 5.35457e-05 0)
(2.99971 0.000130667 0)
(2.9993 0.00032171 0)
(2.99829 0.000782368 0)
(2.99586 0.00193516 0)
(2.98979 0.00472646 0)
(2.97486 0.0117628 0)
(2.93625 0.0297165 0)
(2.83222 0.0786263 0)
(2.53274 0.222094 0)
(1.83332 0.61902 0)
(1.38277 0.855615 0)
(1.29658 0.889414 0)
(1.2992 0.900636 0)
(1.34092 0.888911 0)
(1.39859 0.873538 0)
(1.45573 0.864957 0)
(3 6.35272e-09 0)
(3 4.05545e-08 0)
(3 1.37026e-07 0)
(3 3.93871e-07 0)
(3 1.01279e-06 0)
(2.99999 2.56719e-06 0)
(2.99999 6.34972e-06 0)
(2.99997 1.54846e-05 0)
(2.99992 3.83693e-05 0)
(2.9998 9.19189e-05 0)
(2.99952 0.000229968 0)
(2.99883 0.00054517 0)
(2.99716 0.00137231 0)
(2.99303 0.00326462 0)
(2.9829 0.00820506 0)
(2.95711 0.0201119 0)
(2.88875 0.052135 0)
(2.69754 0.140645 0)
(2.15869 0.411139 0)
(1.54794 0.835406 0)
(1.35375 0.902746 0)
(1.33656 0.916068 0)
(1.36128 0.908576 0)
(1.41527 0.888145 0)
(1.47355 0.873283 0)
(3 4.32403e-09 0)
(3 2.89081e-08 0)
(3 9.48315e-08 0)
(3 2.80542e-07 0)
(3 7.01695e-07 0)
(3 1.8281e-06 0)
(2.99999 4.38433e-06 0)
(2.99998 1.10382e-05 0)
(2.99995 2.64469e-05 0)
(2.99987 6.54426e-05 0)
(2.99968 0.000158654 0)
(2.99924 0.000387138 0)
(2.99813 0.000950203 0)
(2.99548 0.00229998 0)
(2.98888 0.00571141 0)
(2.97266 0.0139705 0)
(2.93068 0.0356233 0)
(2.81788 0.0939666 0)
(2.49109 0.269052 0)
(1.82503 0.695234 0)
(1.45662 0.883232 0)
(1.39049 0.914508 0)
(1.3937 0.921842 0)
(1.43484 0.905664 0)
(1.49096 0.882881 0)
(3 3.01013e-09 0)
(3 1.93627e-08 0)
(3 6.61198e-08 0)
(3 1.8788e-07 0)
(3 4.86224e-07 0)
(3 1.23348e-06 0)
(2.99999 2.99184e-06 0)
(2.99999 7.49498e-06 0)
(2.99996 1.77709e-05 0)
(2.99991 4.46702e-05 0)
(2.99979 0.000105107 0)
(2.99949 0.000264123 0)
(2.99876 0.000622754 0)
(2.997 0.00155923 0)
(2.99263 0.00371255 0)
(2.98196 0.00926307 0)
(2.95479 0.0227017 0)
(2.88302 0.0587114 0)
(2.682 0.158897 0)
(2.13874 0.455311 0)
(1.59891 0.84793 0)
(1.44477 0.916014 0)
(1.42893 0.931279 0)
(1.45193 0.92372 0)
(1.50287 0.89837 0)
(3 2.10669e-09 0)
(3 1.29584e-08 0)
(3 4.53924e-08 0)
(3 1.25812e-07 0)
(3 3.3351e-07 0)
(3 8.24966e-07 0)
(3 2.06039e-06 0)
(2.99999 4.99472e-06 0)
(2.99998 1.22713e-05 0)
(2.99994 2.97665e-05 0)
(2.99987 7.25156e-05 0)
(2.99967 0.000176626 0)
(2.99921 0.000428461 0)
(2.99805 0.00104952 0)
(2.9953 0.00254137 0)
(2.98846 0.0062617 0)
(2.97162 0.0153784 0)
(2.92798 0.0389514 0)
(2.81053 0.102816 0)
(2.47115 0.293406 0)
(1.8519 0.72414 0)
(1.53308 0.898519 0)
(1.4754 0.930226 0)
(1.47852 0.936961 0)
(1.51705 0.919193 0)
(3 1.40349e-09 0)
(3 8.70872e-09 0)
(3 3.01483e-08 0)
(3 8.44794e-08 0)
(3 2.21032e-07 0)
(3 5.51505e-07 0)
(3 1.37056e-06 0)
(2.99999 3.31766e-06 0)
(2.99999 8.19074e-06 0)
(2.99996 1.96322e-05 0)
(2.99991 4.8416e-05 0)
(2.99979 0.000116068 0)
(2.99949 0.000285328 0)
(2.99876 0.000686459 0)
(2.99697 0.00168378 0)
(2.99265 0.00408505 0)
(2.98194 0.0100347 0)
(2.95499 0.0249072 0)
(2.88401 0.0639772 0)
(2.68476 0.174521 0)
(2.16437 0.491339 0)
(1.67239 0.861904 0)
(1.52932 0.93145 0)
(1.51135 0.946442 0)
(1.53031 0.938989 0)
(3 9.31471e-10 0)
(3 5.70669e-09 0)
(3 2.0102e-08 0)
(3 5.52769e-08 0)
(3 1.47208e-07 0)
(3 3.6179e-07 0)
(3 9.0615e-07 0)
(3 2.1886e-06 0)
(2.99999 5.37328e-06 0)
(2.99998 1.30004e-05 0)
(2.99995 3.15896e-05 0)
(2.99987 7.69619e-05 0)
(2.99968 0.00018542 0)
(2.99922 0.000454837 0)
(2.99813 0.00109135 0)
(2.99541 0.00269088 0)
(2.98893 0.00649101 0)
(2.97264 0.0161012 0)
(2.93119 0.0403583 0)
(2.81993 0.106512 0)
(2.50052 0.302834 0)
(1.92312 0.72591 0)
(1.61764 0.908098 0)
(1.55675 0.942827 0)
(1.5556 0.950224 0)
(3 5.90642e-10 0)
(3 3.76589e-09 0)
(3 1.27271e-08 0)
(3 3.64758e-08 0)
(3 9.3598e-08 0)
(3 2.36289e-07 0)
(3 5.8054e-07 0)
(3 1.41217e-06 0)
(2.99999 3.46542e-06 0)
(2.99999 8.27841e-06 0)
(2.99997 2.05331e-05 0)
(2.99992 4.8415e-05 0)
(2.9998 0.000120972 0)
(2.99951 0.000283947 0)
(2.99883 0.000711255 0)
(2.99715 0.00167197 0)
(2.9931 0.00418585 0)
(2.98312 0.0100027 0)
(2.95813 0.0251151 0)
(2.89269 0.0637218 0)
(2.71064 0.173038 0)
(2.23472 0.481007 0)
(1.7615 0.861132 0)
(1.61099 0.939531 0)
(1.58798 0.956161 0)
(3 3.80187e-10 0)
(3 2.40142e-09 0)
(3 8.19661e-09 0)
(3 2.32198e-08 0)
(3 6.01381e-08 0)
(3 1.50468e-07 0)
(3 3.71654e-07 0)
(3 8.99262e-07 0)
(3 2.20744e-06 0)
(2.99999 5.28436e-06 0)
(2.99998 1.29933e-05 0)
(2.99995 3.09655e-05 0)
(2.99988 7.61203e-05 0)
(2.99971 0.000181662 0)
(2.99929 0.000445712 0)
(2.99831 0.00106679 0)
(2.99586 0.00261571 0)
(2.99005 0.00631249 0)
(2.97558 0.0155783 0)
(2.93914 0.0388397 0)
(2.84266 0.101757 0)
(2.56765 0.28656 0)
(2.02445 0.695175 0)
(1.7067 0.903132 0)
(1.63622 0.946861 0)
(3 2.38407e-10 0)
(3 1.49071e-09 0)
(3 5.17375e-09 0)
(3 1.43988e-08 0)
(3 3.78043e-08 0)
(3 9.36202e-08 0)
(3 2.31147e-07 0)
(3 5.61872e-07 0)
(3 1.35916e-06 0)
(2.99999 3.31394e-06 0)
(2.99999 7.90638e-06 0)
(2.99997 1.94236e-05 0)
(2.99993 4.59335e-05 0)
(2.99982 0.000113477 0)
(2.99957 0.00026682 0)
(2.99896 0.000661716 0)
(2.99747 0.00155451 0)
(2.99391 0.00385858 0)
(2.98512 0.00917327 0)
(2.96336 0.0228418 0)
(2.9069 0.0571898 0)
(2.75194 0.153043 0)
(2.33741 0.422602 0)
(1.86364 0.822832 0)
(1.69233 0.930038 0)
(3 1.51845e-10 0)
(3 9.17923e-10 0)
(3 3.2377e-09 0)
(3 8.88434e-09 0)
(3 2.36209e-08 0)
(3 5.75924e-08 0)
(3 1.45234e-07 0)
(3 3.43581e-07 0)
(3 8.57496e-07 0)
(3 2.01592e-06 0)
(2.99999 5.00125e-06 0)
(2.99998 1.18072e-05 0)
(2.99996 2.90567e-05 0)
(2.99989 6.91687e-05 0)
(2.99975 0.000168547 0)
(2.99938 0.000405589 0)
(2.99852 0.00097903 0)
(2.9964 0.00238297 0)
(2.99137 0.00573862 0)
(2.97886 0.0141268 0)
(2.94761 0.0349148 0)
(2.86571 0.0904565 0)
(2.63352 0.25 0)
(2.13625 0.633503 0)
(1.798 0.890266 0)
(3 8.79899e-11 0)
(3 5.79692e-10 0)
(3 1.91869e-09 0)
(3 5.59598e-09 0)
(3 1.40335e-08 0)
(3 3.61011e-08 0)
(3 8.61858e-08 0)
(3 2.14435e-07 0)
(3 5.08995e-07 0)
(3 1.24862e-06 0)
(3 2.98176e-06 0)
(2.99999 7.22399e-06 0)
(2.99997 1.74262e-05 0)
(2.99994 4.17472e-05 0)
(2.99985 0.000101739 0)
(2.99963 0.000241034 0)
(2.99912 0.000593559 0)
(2.99788 0.00139644 0)
(2.9949 0.00345785 0)
(2.9876 0.00820379 0)
(2.96967 0.0203655 0)
(2.92379 0.0505734 0)
(2.80009 0.133592 0)
(2.46123 0.37099 0)
(1.99118 0.773023 0)
(3 5.43485e-11 0)
(3 3.46772e-10 0)
(3 1.18652e-09 0)
(3 3.3435e-09 0)
(3 8.6623e-09 0)
(3 2.17078e-08 0)
(3 5.2688e-08 0)
(3 1.2993e-07 0)
(3 3.08318e-07 0)
(3 7.61597e-07 0)
(3 1.7922e-06 0)
(2.99999 4.42785e-06 0)
(2.99998 1.04242e-05 0)
(2.99996 2.56718e-05 0)
(2.99991 6.06778e-05 0)
(2.99979 0.000148505 0)
(2.99949 0.000354094 0)
(2.99878 0.000859286 0)
(2.99704 0.00206941 0)
(2.99292 0.00500659 0)
(2.98271 0.0122054 0)
(2.95748 0.0300484 0)
(2.89205 0.0766378 0)
(2.70966 0.208052 0)
(2.27919 0.544574 0)
(3 3.36046e-11 0)
(3 2.03843e-10 0)
(3 7.18703e-10 0)
(3 1.96785e-09 0)
(3 5.22898e-09 0)
(3 1.27502e-08 0)
(3 3.18581e-08 0)
(3 7.58919e-08 0)
(3 1.86452e-07 0)
(3 4.43294e-07 0)
(3 1.07878e-06 0)
(3 2.57911e-06 0)
(2.99999 6.21975e-06 0)
(2.99998 1.49951e-05 0)
(2.99995 3.58216e-05 0)
(2.99988 8.70483e-05 0)
(2.99971 0.00020658 0)
(2.99931 0.000504846 0)
(2.99836 0.00119407 0)
(2.99603 0.00292984 0)
(2.99049 0.00697341 0)
(2.97691 0.0171907 0)
(2.94305 0.042365 0)
(2.8542 0.110284 0)
(2.60743 0.30491 0)
(3 1.93028e-11 0)
(3 1.21824e-10 0)
(3 4.15377e-10 0)
(3 1.17534e-09 0)
(3 3.02313e-09 0)
(3 7.56045e-09 0)
(3 1.84763e-08 0)
(3 4.4608e-08 0)
(3 1.08323e-07 0)
(3 2.57841e-07 0)
(3 6.28575e-07 0)
(3 1.48294e-06 0)
(2.99999 3.62657e-06 0)
(2.99999 8.53215e-06 0)
(2.99997 2.08631e-05 0)
(2.99993 4.90927e-05 0)
(2.99984 0.000119515 0)
(2.99961 0.000282852 0)
(2.99906 0.00068368 0)
(2.99773 0.00162857 0)
(2.99457 0.00392282 0)
(2.98682 0.00943989 0)
(2.96791 0.0229363 0)
(2.91963 0.0571961 0)
(2.78934 0.150401 0)
(3 1.12055e-11 0)
(3 7.07965e-11 0)
(3 2.43246e-10 0)
(3 6.81384e-10 0)
(3 1.76883e-09 0)
(3 4.39406e-09 0)
(3 1.07303e-08 0)
(3 2.60864e-08 0)
(3 6.24073e-08 0)
(3 1.51599e-07 0)
(3 3.59585e-07 0)
(3 8.7596e-07 0)
(3 2.06924e-06 0)
(2.99999 5.03922e-06 0)
(2.99998 1.19215e-05 0)
(2.99996 2.89661e-05 0)
(2.99991 6.86869e-05 0)
(2.99978 0.000166319 0)
(2.99948 0.000396329 0)
(2.99873 0.000955882 0)
(2.997 0.00229346 0)
(2.99272 0.00552748 0)
(2.98251 0.0134143 0)
(2.95695 0.0329355 0)
(2.89131 0.0836308 0)
(3 6.35166e-12 0)
(3 4.09886e-11 0)
(3 1.37695e-10 0)
(3 3.94469e-10 0)
(3 1.00097e-09 0)
(3 2.53383e-09 0)
(3 6.07372e-09 0)
(3 1.49607e-08 0)
(3 3.54046e-08 0)
(3 8.64525e-08 0)
(3 2.0404e-07 0)
(3 4.96871e-07 0)
(3 1.17537e-06 0)
(3 2.84303e-06 0)
(2.99999 6.76467e-06 0)
(2.99998 1.62602e-05 0)
(2.99995 3.89632e-05 0)
(2.99988 9.27703e-05 0)
(2.99971 0.000224421 0)
(2.99931 0.000530634 0)
(2.99838 0.00129063 0)
(2.99608 0.0030502 0)
(2.9907 0.00745044 0)
(2.97742 0.017858 0)
(2.94469 0.044462 0)
(3 3.59399e-12 0)
(3 2.31188e-11 0)
(3 7.80748e-11 0)
(3 2.22359e-10 0)
(3 5.67298e-10 0)
(3 1.4263e-09 0)
(3 3.43698e-09 0)
(3 8.40405e-09 0)
(3 1.99487e-08 0)
(3 4.84459e-08 0)
(3 1.14681e-07 0)
(3 2.77155e-07 0)
(3 6.57675e-07 0)
(3 1.58119e-06 0)
(3 3.77058e-06 0)
(2.99999 9.00041e-06 0)
(2.99997 2.15627e-05 0)
(2.99993 5.11898e-05 0)
(2.99984 0.000123227 0)
(2.99962 0.000290811 0)
(2.9991 0.000702142 0)
(2.99785 0.00165631 0)
(2.99483 0.00400248 0)
(2.98761 0.009519 0)
(2.96985 0.0231444 0)
(3 2.03316e-12 0)
(3 1.31238e-11 0)
(3 4.40725e-11 0)
(3 1.26147e-10 0)
(3 3.20038e-10 0)
(3 8.06173e-10 0)
(3 1.94448e-09 0)
(3 4.71974e-09 0)
(3 1.13206e-08 0)
(3 2.70128e-08 0)
(3 6.52327e-08 0)
(3 1.53863e-07 0)
(3 3.73908e-07 0)
(3 8.76551e-07 0)
(3 2.13844e-06 0)
(2.99999 5.00045e-06 0)
(2.99998 1.21851e-05 0)
(2.99996 2.85897e-05 0)
(2.99991 6.93255e-05 0)
(2.99979 0.00016351 0)
(2.99952 0.000394014 0)
(2.99883 0.000937089 0)
(2.99724 0.0022442 0)
(2.99333 0.00539168 0)
(2.98407 0.0129559 0)
(3 1.14615e-12 0)
(3 7.20946e-12 0)
(3 2.46076e-11 0)
(3 6.92951e-11 0)
(3 1.77991e-10 0)
(3 4.45117e-10 0)
(3 1.07102e-09 0)
(3 2.62171e-09 0)
(3 6.17686e-09 0)
(3 1.51044e-08 0)
(3 3.5288e-08 0)
(3 8.61744e-08 0)
(3 2.01676e-07 0)
(3 4.89879e-07 0)
(3 1.15171e-06 0)
(3 2.78021e-06 0)
(2.99999 6.58665e-06 0)
(2.99998 1.5749e-05 0)
(2.99995 3.764e-05 0)
(2.99989 8.92108e-05 0)
(2.99974 0.000215189 0)
(2.99939 0.00050536 0)
(2.99854 0.00122963 0)
(2.99652 0.00288136 0)
(2.99172 0.00703986 0)
(3 6.28403e-13 0)
(3 3.85945e-12 0)
(3 1.36988e-11 0)
(3 3.73208e-11 0)
(3 9.87659e-11 0)
(3 2.39873e-10 0)
(3 5.93616e-10 0)
(3 1.40999e-09 0)
(3 3.41373e-09 0)
(3 8.12372e-09 0)
(3 1.93801e-08 0)
(3 4.64629e-08 0)
(3 1.09682e-07 0)
(3 2.65037e-07 0)
(3 6.20274e-07 0)
(3 1.50701e-06 0)
(3 3.51143e-06 0)
(2.99999 8.54043e-06 0)
(2.99998 1.99105e-05 0)
(2.99994 4.82375e-05 0)
(2.99986 0.000112912 0)
(2.99968 0.000272 0)
(2.99922 0.000641208 0)
(2.99817 0.00153127 0)
(2.9956 0.00364964 0)
(3 3.32938e-13 0)
(3 2.14606e-12 0)
(3 7.273e-12 0)
(3 2.05363e-11 0)
(3 5.27207e-11 0)
(3 1.30779e-10 0)
(3 3.18691e-10 0)
(3 7.61504e-10 0)
(3 1.84676e-09 0)
(3 4.33127e-09 0)
(3 1.05416e-08 0)
(3 2.45741e-08 0)
(3 5.97851e-08 0)
(3 1.39334e-07 0)
(3 3.37894e-07 0)
(3 7.89891e-07 0)
(3 1.9053e-06 0)
(2.99999 4.48325e-06 0)
(2.99999 1.0712e-05 0)
(2.99997 2.54318e-05 0)
(2.99993 6.02028e-05 0)
(2.99983 0.000144299 0)
(2.99959 0.000337985 0)
(2.99903 0.000817561 0)
(2.99768 0.00190619 0)
(3 1.84578e-13 0)
(3 1.14922e-12 0)
(3 3.81008e-12 0)
(3 1.11335e-11 0)
(3 2.78686e-11 0)
(3 7.04314e-11 0)
(3 1.67685e-10 0)
(3 4.09506e-10 0)
(3 9.65901e-10 0)
(3 2.32227e-09 0)
(3 5.50595e-09 0)
(3 1.30705e-08 0)
(3 3.12766e-08 0)
(3 7.34593e-08 0)
(3 1.76973e-07 0)
(3 4.13335e-07 0)
(3 9.982e-07 0)
(3 2.3275e-06 0)
(2.99999 5.61659e-06 0)
(2.99998 1.31181e-05 0)
(2.99996 3.15197e-05 0)
(2.99991 7.40465e-05 0)
(2.99978 0.000176514 0)
(2.99948 0.000418004 0)
(2.99878 0.000988417 0)
(3 8.58753e-14 0)
(3 5.76437e-13 0)
(3 2.00266e-12 0)
(3 5.59412e-12 0)
(3 1.44705e-11 0)
(3 3.57762e-11 0)
(3 8.64418e-11 0)
(3 2.07919e-10 0)
(3 4.92215e-10 0)
(3 1.1794e-09 0)
(3 2.76798e-09 0)
(3 6.62989e-09 0)
(3 1.54951e-08 0)
(3 3.70787e-08 0)
(3 8.67466e-08 0)
(3 2.06562e-07 0)
(3 4.84733e-07 0)
(3 1.14765e-06 0)
(3 2.70553e-06 0)
(2.99999 6.35768e-06 0)
(2.99998 1.50466e-05 0)
(2.99995 3.51366e-05 0)
(2.99988 8.34447e-05 0)
(2.99971 0.000193738 0)
(2.9993 0.000460271 0)
(3 4.33697e-14 0)
(3 3.06954e-13 0)
(3 1.02018e-12 0)
(3 2.78626e-12 0)
(3 7.14858e-12 0)
(3 1.7413e-11 0)
(3 4.22833e-11 0)
(3 9.97459e-11 0)
(3 2.38866e-10 0)
(3 5.579e-10 0)
(3 1.32659e-09 0)
(3 3.09561e-09 0)
(3 7.30676e-09 0)
(3 1.70749e-08 0)
(3 4.00354e-08 0)
(3 9.35628e-08 0)
(3 2.18168e-07 0)
(3 5.10568e-07 0)
(3 1.17966e-06 0)
(2.99999 2.7633e-06 0)
(2.99999 6.34647e-06 0)
(2.99996 1.48223e-05 0)
(2.99991 3.38539e-05 0)
(2.99979 7.83958e-05 0)
(2.99951 0.000179193 0)
(3 7.77976e-15 0)
(3 9.8146e-14 0)
(3 3.78017e-13 0)
(3 1.18951e-12 0)
(3 3.08233e-12 0)
(3 7.74364e-12 0)
(3 1.84573e-11 0)
(3 4.46224e-11 0)
(3 1.02824e-10 0)
(3 2.47695e-10 0)
(3 5.62813e-10 0)
(3 1.35209e-09 0)
(3 3.06136e-09 0)
(3 7.30378e-09 0)
(3 1.65895e-08 0)
(3 3.89364e-08 0)
(3 8.9488e-08 0)
(3 2.05653e-07 0)
(3 4.77834e-07 0)
(3 1.07164e-06 0)
(2.99999 2.52758e-06 0)
(2.99997 5.51672e-06 0)
(2.99993 1.31344e-05 0)
(2.99983 2.78497e-05 0)
(2.99957 6.72885e-05 0)
(3 -9.39518e-15 0)
(3 -3.77208e-15 0)
(3 7.32587e-14 0)
(3 2.38999e-13 0)
(3 7.93606e-13 0)
(3 2.00251e-12 0)
(3 5.14905e-12 0)
(3 1.19424e-11 0)
(3 2.92958e-11 0)
(3 6.49485e-11 0)
(3 1.61369e-10 0)
(3 3.47716e-10 0)
(3 8.74486e-10 0)
(3 1.8434e-09 0)
(3 4.66679e-09 0)
(3 9.72962e-09 0)
(3 2.44647e-08 0)
(3 5.11257e-08 0)
(3 1.2484e-07 0)
(3 2.68672e-07 0)
(2.99999 6.20583e-07 0)
(2.99997 1.39234e-06 0)
(2.99993 2.99198e-06 0)
(2.99984 7.09857e-06 0)
(2.9996 1.40866e-05 0)
(1.27873 1.07803 0)
(1.68964 0.878492 0)
(1.87392 0.615697 0)
(1.90262 0.353297 0)
(1.85459 0.13512 0)
(1.76302 -0.00869248 0)
(1.66862 -0.0454061 0)
(1.62023 -0.0156357 0)
(1.6119 0.0247307 0)
(1.61455 0.0453188 0)
(1.61787 0.0439505 0)
(1.61862 0.0330389 0)
(1.6166 0.0227251 0)
(1.61288 0.0147228 0)
(1.60769 0.0118798 0)
(1.60342 0.0128485 0)
(1.60155 0.0154106 0)
(1.60082 0.0172333 0)
(1.60028 0.0172691 0)
(1.59945 0.0161364 0)
(1.59793 0.0148479 0)
(1.59491 0.0136832 0)
(1.5886 0.013032 0)
(1.57513 0.0135213 0)
(1.5459 0.016233 0)
(1.48165 0.0232615 0)
(1.33828 0.0388825 0)
(1.01962 0.0738468 0)
(0.518965 0.148466 0)
(0.114334 0.18296 0)
(-0.117107 0.143884 0)
(-0.304261 0.0818957 0)
(-0.478191 0.0280804 0)
(-0.606216 -0.00584524 0)
(-0.670259 -0.0231742 0)
(-0.68474 -0.0233689 0)
(-0.659083 -0.0132278 0)
(-0.613899 -0.0089544 0)
(-0.544489 -0.0190124 0)
(-0.446168 -0.0396611 0)
(-0.338851 -0.0488947 0)
(-0.230655 -0.0545011 0)
(-0.12742 -0.0568827 0)
(-0.0320645 -0.0626152 0)
(0.0725849 -0.0524209 0)
(0.150817 -0.0450697 0)
(0.225613 -0.0405211 0)
(0.292962 -0.0370392 0)
(0.352889 -0.0336241 0)
(0.406596 -0.0304365 0)
(0.459678 -0.0286743 0)
(0.512647 -0.0283097 0)
(0.562301 -0.026747 0)
(0.608931 -0.0248972 0)
(0.653265 -0.0232704 0)
(0.695702 -0.0218552 0)
(0.736635 -0.0206473 0)
(0.776169 -0.0195412 0)
(0.814499 -0.0185501 0)
(0.851665 -0.0176149 0)
(0.887807 -0.0167602 0)
(0.922951 -0.0159449 0)
(0.957201 -0.015193 0)
(0.990576 -0.0144772 0)
(1.02315 -0.0138169 0)
(1.05494 -0.0131856 0)
(1.08601 -0.0125942 0)
(1.11638 -0.0120173 0)
(1.14612 -0.0114624 0)
(1.17526 -0.0109117 0)
(1.20385 -0.0103751 0)
(1.23193 -0.00984203 0)
(1.25955 -0.00932512 0)
(1.2867 -0.00881448 0)
(1.31343 -0.00832374 0)
(1.3397 -0.00783937 0)
(1.36555 -0.00737659 0)
(1.39096 -0.00691807 0)
(1.41593 -0.00648181 0)
(1.44046 -0.00604838 0)
(1.46457 -0.00563826 0)
(1.48824 -0.00523024 0)
(1.5115 -0.00484353 0)
(1.53436 -0.00445699 0)
(1.55682 -0.00409095 0)
(1.57891 -0.00372276 0)
(1.60063 -0.00337177 0)
(1.62199 -0.00302349 0)
(1.64303 -0.00269133 0)
(1.66371 -0.00235801 0)
(1.68406 -0.00205379 0)
(1.70406 -0.00177377 0)
(1.72372 -0.0015249 0)
(1.74296 -0.00132154 0)
(1.76174 -0.00110303 0)
(1.77993 -0.000833315 0)
(1.79723 -0.000493593 0)
(1.81309 -6.12376e-05 0)
(1.82569 0.000591842 0)
(1.83503 0.00139792 0)
(1.37306 0.990294 0)
(1.68572 0.708446 0)
(1.85949 0.397149 0)
(1.94452 0.1304 0)
(1.99532 -0.0603259 0)
(2.02592 -0.161403 0)
(2.03569 -0.168597 0)
(2.03445 -0.128742 0)
(2.02129 -0.0806814 0)
(1.99953 -0.0421088 0)
(1.98201 -0.0201682 0)
(1.97641 -0.0132801 0)
(1.97658 -0.015021 0)
(1.97803 -0.0197824 0)
(1.97899 -0.0223397 0)
(1.97888 -0.0219284 0)
(1.97824 -0.0196998 0)
(1.97679 -0.017332 0)
(1.97495 -0.0151974 0)
(1.9737 -0.0134455 0)
(1.9727 -0.0121688 0)
(1.97099 -0.0108702 0)
(1.96732 -0.0090681 0)
(1.95894 -0.00586036 0)