/*--------------------------------*- C++ -*----------------------------------*\
  =========                 |
  \\      /  F ield         | OpenFOAM: The Open Source CFD Toolbox
   \\    /   O peration     | Website:  https://openfoam.org
    \\  /    A nd           | Version:  13
     \\/     M anipulation  |
\*---------------------------------------------------------------------------*/
FoamFile
{
    format      ascii;
    class       surfaceScalarField;
    location    "8.5";
    object      phi;
}
// * * * * * * * * * * * * * * * * * * * * * * * * * * * * * * * * * * * * * //

dimensions      [1 0 -1 0 0 0 0];

internalField   nonuniform List<scalar> 
10325
(
0.0840003
6.27444e-11
0.0840003
8.02186e-09
0.0840001
1.18429e-08
0.0840004
8.10977e-08
0.0839998
7.2978e-08
0.0839983
6.0304e-07
0.0840013
2.46401e-07
0.0839849
3.89808e-06
0.0840042
2.07395e-06
0.0839581
1.92603e-05
0.08395
2.26496e-05
0.0838395
0.000102777
0.0835618
0.000288856
0.0822835
0.00121913
0.076305
0.0058694
0.0701483
0.00616533
0.0640644
0.00609079
0.0577413
0.00632278
0.0510924
0.00664725
0.0439887
0.00710236
0.0363228
0.00766411
0.0280885
0.00823302
0.0193208
0.00876586
0.0099935
0.00932349
0.00999167
0.0840003
8.8864e-10
0.0840002
1.37035e-08
0.0840007
2.36124e-08
0.0839993
1.3081e-07
0.0840013
2.0195e-07
0.0839977
7.50311e-07
0.0839985
1.49216e-06
0.0839952
4.13714e-06
0.0839895
9.93487e-06
0.0839708
2.43616e-05
0.0839555
6.65915e-05
0.0838261
0.000185939
0.0834999
0.000615481
0.0822459
0.00243792
0.076232
0.0117809
0.0700225
0.0123843
0.0640237
0.0120962
0.0577586
0.0125873
0.051137
0.0132671
0.0439673
0.0142709
0.0362201
0.0154094
0.0279021
0.0165498
0.0190172
0.017649
0.00964008
0.0186968
0.0196299
0.0840003
2.63385e-09
0.0840005
1.442e-08
0.0839997
5.57209e-08
0.0840014
1.39827e-07
0.0839967
4.1006e-07
0.084008
9.69147e-07
0.0839785
2.45554e-06
0.0840411
6.1925e-06
0.0839089
1.4543e-05
0.0840947
3.85793e-05
0.083819
9.79252e-05
0.0839381
0.000285076
0.0834541
0.000918547
0.082314
0.00362095
0.0764024
0.017571
0.0701675
0.018628
0.0642471
0.0180238
0.0580661
0.0187678
0.0514964
0.0198346
0.0443545
0.0214129
0.0365799
0.023181
0.0282049
0.0249243
0.0192113
0.0266405
0.00971067
0.0281935
0.0293388
0.0840003
3.17087e-09
0.0840004
1.96045e-08
0.0840003
6.88538e-08
0.0839999
1.91393e-07
0.084
5.12335e-07
0.0839997
1.27004e-06
0.0839951
3.23736e-06
0.0840025
7.88442e-06
0.083973
1.99959e-05
0.0839975
4.99144e-05
0.0839238
0.000132421
0.0838557
0.000375585
0.0835064
0.0012171
0.0824137
0.00470428
0.0767755
0.0230943
0.0705823
0.0248347
0.0647486
0.0238663
0.0586746
0.0248406
0.0522082
0.0262995
0.0451372
0.0284813
0.0374285
0.0308896
0.0290099
0.0333434
0.0198959
0.0357515
0.0101146
0.0379708
0.0394545
0.0840003
3.92273e-09
0.0840004
2.46252e-08
0.0840003
8.45663e-08
0.0839999
2.39793e-07
0.0840001
6.26352e-07
0.0839995
1.58487e-06
0.0839957
3.97182e-06
0.0840009
9.85954e-06
0.0839764
2.46988e-05
0.0839923
6.24028e-05
0.083931
0.000164154
0.0838534
0.000464706
0.083535
0.00149504
0.0825527
0.00567303
0.077429
0.0280964
0.0712887
0.0309932
0.0655229
0.0296421
0.0595844
0.0307783
0.0532593
0.0326235
0.0463378
0.0354011
0.0386952
0.0385329
0.0302866
0.0417499
0.0209756
0.04506
0.0108015
0.0481431
0.0502563
0.0840003
4.61829e-09
0.0840004
2.87724e-08
0.0840003
9.84792e-08
0.084
2.82127e-07
0.0839998
7.33737e-07
0.0840005
1.83471e-06
0.0839935
4.784e-06
0.0840074
1.12803e-05
0.0839641
3.00365e-05
0.0840156
7.24227e-05
0.0839083
0.000195695
0.0838882
0.000542877
0.0835697
0.00174094
0.0827787
0.00646715
0.0786591
0.0320801
0.0724174
0.0372572
0.0666987
0.0353729
0.0608914
0.0365854
0.0547413
0.0387726
0.0480179
0.0421234
0.040521
0.0460304
0.032111
0.0501592
0.0226217
0.0545478
0.0118554
0.0589083
0.06211
0.0840003
5.20051e-09
0.0840005
3.20814e-08
0.0839998
1.13669e-07
0.0840012
3.12291e-07
0.0839973
8.42427e-07
0.084007
2.11375e-06
0.0839816
5.26757e-06
0.0840389
1.336e-05
0.0839133
3.25609e-05
0.084107
8.41151e-05
0.0838168
0.000216092
0.0840087
0.000608479
0.0836222
0.00190976
0.0831793
0.00697937
0.0808642
0.0342356
0.0744227
0.0437263
0.0685386
0.0412719
0.0627785
0.0423458
0.0568074
0.0447432
0.0503079
0.0486232
0.0430008
0.0533374
0.0346628
0.0584962
0.0249809
0.0642302
0.0135355
0.0703509
0.0756427
0.0840003
5.84522e-09
0.0840004
3.19974e-08
0.0840003
1.24134e-07
0.0840003
3.12488e-07
0.0839994
9.24963e-07
0.0840025
2.114e-06
0.0839902
5.80989e-06
0.0840202
1.34118e-05
0.0839494
3.55201e-05
0.084063
8.62201e-05
0.0838945
0.000229315
0.08402
0.000627752
0.083836
0.00195751
0.0838544
0.00700151
0.0846053
0.0333252
0.0779038
0.0504558
0.0714281
0.0477648
0.065567
0.0482089
0.0597325
0.0505776
0.0534386
0.0549192
0.046359
0.0604177
0.0381674
0.0666881
0.0284584
0.0739391
0.0162811
0.082526
0.0919202
0.0840003
5.75306e-09
0.0840002
2.9986e-08
0.0840008
1.18151e-07
0.0839994
2.92688e-07
0.0840027
8.66485e-07
0.0839955
1.97983e-06
0.0840114
5.516e-06
0.0839804
1.24128e-05
0.0840391
3.41971e-05
0.0839478
7.96234e-05
0.0840962
0.000216521
0.0839787
0.000575697
0.0842924
0.00176718
0.0850658
0.00614104
0.0908308
0.0274258
0.0836971
0.0576106
0.0757673
0.0557105
0.0697404
0.05424
0.0637483
0.0565704
0.0576694
0.061002
0.0508207
0.0672669
0.0431954
0.0743157
0.034015
0.0831212
0.0211174
0.0954217
0.113034
0.0840003
3.87433e-09
0.0840002
3.09007e-08
0.0840007
8.72164e-08
0.0839994
3.02738e-07
0.084003
6.58797e-07
0.0839943
1.9421e-06
0.0840178
4.25875e-06
0.0839686
1.15863e-05
0.0840874
2.68807e-05
0.0838887
6.95004e-05
0.0842424
0.000172605
0.0839905
0.000464756
0.0846946
0.00135368
0.0861453
0.00450749
0.0944395
0.0190997
0.0894604
0.0625483
0.0803203
0.0648459
0.0748168
0.0597418
0.0687895
0.0625971
0.0630133
0.0667807
0.0569215
0.0733617
0.0502816
0.0809565
0.0417723
0.0916306
0.0295126
0.107682
0.142542
0.0840003
3.83836e-09
0.0840005
2.55205e-08
0.0839999
8.55031e-08
0.0840014
2.47246e-07
0.083998
6.38979e-07
0.0840067
1.6255e-06
0.0839882
4.03046e-06
0.0840335
1.00576e-05
0.0839445
2.45443e-05
0.0841201
6.17122e-05
0.0838824
0.000154044
0.0842353
0.000409791
0.0841398
0.00117361
0.0849294
0.00384967
0.0882966
0.0156371
0.0879285
0.0628166
0.0855397
0.0672173
0.07888
0.0663952
0.0737853
0.0676903
0.068805
0.0717606
0.0642325
0.077935
0.0592146
0.0859753
0.0546918
0.0961531
0.054019
0.108351
0.113635
0.0829188
0.0840003
4.45915e-09
0.0840004
2.11808e-08
0.084
9.146e-08
0.084001
2.08568e-07
0.0839985
6.64041e-07
0.0840055
1.42801e-06
0.0839891
4.06019e-06
0.0840302
9.03392e-06
0.0839438
2.42324e-05
0.0841201
5.70544e-05
0.0838436
0.000148874
0.0842215
0.000383382
0.0839498
0.0010952
0.0844969
0.00352806
0.0864187
0.0135617
0.0877135
0.0614313
0.0846163
0.07031
0.0806865
0.0703238
0.0770781
0.0712985
0.0733436
0.0754955
0.0699856
0.0812938
0.067231
0.0887294
0.0661089
0.0972745
0.0698142
0.104647
0.104778
0.078658
0.0840003
3.26046e-09
0.0840002
2.50133e-08
0.0840005
7.34211e-08
0.0839998
2.42879e-07
0.0840018
5.56346e-07
0.0839965
1.56434e-06
0.0840104
3.63116e-06
0.0839786
9.41724e-06
0.0840539
2.28387e-05
0.0839064
5.69683e-05
0.0841504
0.000144248
0.0838529
0.000373292
0.0841859
0.00104914
0.0841733
0.00331199
0.0855505
0.0122504
0.0890441
0.0577962
0.0861204
0.0732352
0.0828456
0.0736024
0.0799616
0.0741849
0.0775064
0.0779482
0.0753158
0.0834836
0.0742668
0.0897814
0.0757071
0.0958296
0.0800838
0.100266
0.0995342
0.0853175
0.0840003
3.45762e-09
0.0840004
2.1905e-08
0.0840001
7.52624e-08
0.0840009
2.15066e-07
0.0839991
5.58946e-07
0.0840036
1.44906e-06
0.0839942
3.50126e-06
0.084016
9.04506e-06
0.0839713
2.15091e-05
0.0840608
5.58442e-05
0.0839175
0.00013613
0.0841364
0.000360494
0.0839623
0.000983882
0.0843872
0.00305704
0.0856056
0.0109179
0.0935133
0.0497739
0.0901723
0.0765875
0.0860368
0.0777464
0.0833496
0.076879
0.0815706
0.0797285
0.0805509
0.0844987
0.0807497
0.0895799
0.0826427
0.0939369
0.0863815
0.0965245
0.0952201
0.0906825
0.0840003
3.20534e-09
0.0840004
1.82419e-08
0.0840001
6.91423e-08
0.0840009
1.77764e-07
0.0839992
5.11729e-07
0.0840038
1.19803e-06
0.0839941
3.17159e-06
0.0840196
7.61561e-06
0.0839696
1.9085e-05
0.0840861
4.78301e-05
0.0839113
0.000117893
0.0842393
0.000306465
0.0840819
0.000819396
0.084942
0.00244886
0.0873349
0.00835687
0.102182
0.0348127
0.0964622
0.0823165
0.092146
0.0820719
0.0880808
0.0809521
0.0859894
0.0818234
0.085356
0.0851337
0.0859302
0.0890068
0.0878428
0.0920181
0.0910208
0.0933421
0.0916651
0.094569
0.0840003
2.3603e-09
0.0840003
1.61242e-08
0.0840005
5.24653e-08
0.084
1.57613e-07
0.0840015
3.91416e-07
0.0839986
1.03515e-06
0.0840063
2.47373e-06
0.0839923
6.29638e-06
0.0840308
1.51115e-05
0.0839682
3.80601e-05
0.084126
9.27745e-05
0.0839851
0.000236272
0.0844456
0.000616515
0.0848808
0.00176073
0.087652
0.00570367
0.0998304
0.02254
0.101301
0.080794
0.0977603
0.0856055
0.0929008
0.0858104
0.0905696
0.084157
0.0898831
0.0858184
0.0903939
0.088496
0.0920119
0.0904
0.0945858
0.0907635
0.0888231
0.0974186
0.0840003
2.27467e-09
0.0840003
1.29346e-08
0.0840004
4.74417e-08
0.0840001
1.2614e-07
0.084001
3.50303e-07
0.0839995
8.2703e-07
0.084003
2.22281e-06
0.0839984
5.01825e-06
0.0840076
1.36339e-05
0.084002
3.03632e-05
0.0840312
8.2448e-05
0.0840393
0.000192186
0.0841856
0.000521886
0.0844521
0.00142179
0.0856469
0.0045307
0.0911669
0.0169705
0.101191
0.0706497
0.0996044
0.0871778
0.0970475
0.0883621
0.0945473
0.086655
0.0937629
0.0866067
0.0942125
0.0880434
0.0955078
0.0891004
0.0974799
0.0887878
0.0866414
0.0996551
0.0840003
1.65135e-09
0.0840003
1.17904e-08
0.0840003
3.74566e-08
0.0840003
1.15267e-07
0.0840005
2.77892e-07
0.084
7.70804e-07
0.0840025
1.73605e-06
0.0839956
4.7876e-06
0.0840181
1.0614e-05
0.0839715
2.91104e-05
0.0840918
6.5896e-05
0.0839169
0.000178163
0.0842639
0.000437358
0.0841665
0.00123058
0.0851833
0.00373389
0.0886354
0.0133501
0.102891
0.0562923
0.10242
0.087653
0.100318
0.0904683
0.0979239
0.0890556
0.0971052
0.087424
0.0974298
0.0877214
0.0984605
0.0880665
0.0999362
0.0873038
0.0850267
0.101543
0.0840003
1.48067e-09
0.0840003
9.15355e-09
0.0840004
3.19882e-08
0.0840003
8.91724e-08
0.0840006
2.3817e-07
0.0840002
5.86649e-07
0.084001
1.50004e-06
0.0840018
3.60463e-06
0.0840006
9.11429e-06
0.084016
2.20014e-05
0.0840015
5.53468e-05
0.0840883
0.000136226
0.0841123
0.0003479
0.0844727
0.000922903
0.0854515
0.00269764
0.0897969
0.00900561
0.110363
0.0355667
0.107883
0.0901183
0.106052
0.0923136
0.102945
0.0921731
0.100925
0.0894519
0.100573
0.0880702
0.101165
0.0874762
0.102195
0.0862677
0.0838844
0.103326
0.0840003
1.21595e-09
0.0840003
6.97961e-09
0.0840004
2.56555e-08
0.0840003
6.82144e-08
0.0840006
1.88935e-07
0.0840001
4.49443e-07
0.0840015
1.1868e-06
0.0840008
2.72848e-06
0.0840031
7.20544e-06
0.0840101
1.64095e-05
0.0840114
4.32103e-05
0.0840667
0.000100848
0.0841217
0.000262943
0.084395
0.000665949
0.085193
0.00188471
0.0882496
0.00594924
0.101237
0.0225059
0.11148
0.0797897
0.10975
0.0940386
0.107014
0.0949091
0.104632
0.0918391
0.103675
0.0890312
0.103775
0.0873664
0.104346
0.0856915
0.0831585
0.105062
0.0840003
8.80657e-10
0.0840003
5.72995e-09
0.0840004
1.92597e-08
0.0840003
5.59188e-08
0.0840006
1.43128e-07
0.0839999
3.68361e-07
0.0840022
9.0066e-07
0.0839976
2.24857e-06
0.0840121
5.47211e-06
0.0839858
1.35692e-05
0.0840638
3.32887e-05
0.0839437
8.23625e-05
0.0842371
0.000206344
0.0840448
0.000527406
0.0848265
0.00144324
0.0860735
0.00440985
0.092792
0.0158939
0.110493
0.0619365
0.11152
0.0930031
0.110323
0.0961036
0.10772
0.0944444
0.106536
0.0902115
0.106281
0.0876245
0.106492
0.0854623
0.0828092
0.10682
0.0840003
6.78119e-10
0.0840003
4.46134e-09
0.0840003
1.47614e-08
0.0840003
4.35193e-08
0.0840005
1.09634e-07
0.0840001
2.85331e-07
0.0840015
6.92861e-07
0.0839988
1.73545e-06
0.0840086
4.23653e-06
0.0839908
1.04065e-05
0.0840491
2.5736e-05
0.0839606
6.28848e-05
0.0842104
0.00015801
0.0840299
0.000395642
0.0847775
0.00105605
0.085792
0.00305534
0.0916054
0.010238
0.114799
0.0385573
0.115677
0.0920962
0.114873
0.0969111
0.112669
0.0966512
0.110011
0.0928687
0.108949
0.088671
0.108727
0.0856797
0.0827767
0.108741
0.0840003
4.99919e-10
0.0840003
3.31052e-09
0.0840003
1.10278e-08
0.0840004
3.23605e-08
0.0840003
8.15598e-08
0.0840005
2.12984e-07
0.0840006
5.08541e-07
0.0840005
1.29487e-06
0.084004
3.0793e-06
0.0839979
7.72453e-06
0.0840286
1.8555e-05
0.0839877
4.61395e-05
0.0841516
0.000112791
0.0840609
0.000283084
0.0846474
0.00072744
0.0854224
0.0020199
0.0894983
0.00631702
0.104783
0.0231561
0.118242
0.0785582
0.117914
0.0972269
0.115866
0.0986903
0.113194
0.0955339
0.111968
0.0898835
0.111159
0.086459
0.0830845
0.110816
0.0840003
3.69302e-10
0.0840003
2.47931e-09
0.0840003
8.23114e-09
0.0840004
2.41458e-08
0.0840003
6.10987e-08
0.0840006
1.58984e-07
0.0840002
3.80585e-07
0.0840014
9.7612e-07
0.0840008
2.29077e-06
0.0840036
5.91053e-06
0.0840086
1.37613e-05
0.0840108
3.55934e-05
0.0840584
8.41393e-05
0.0840854
0.000217015
0.0843184
0.000540827
0.0848093
0.0014771
0.0867585
0.00440682
0.0942786
0.0155637
0.117019
0.0557016
0.119463
0.094755
0.119704
0.0984271
0.117877
0.0973426
0.114952
0.0927997
0.11377
0.0876189
0.0838073
0.113006
0.0840003
2.87053e-10
0.0840003
1.65593e-09
0.0840003
6.16016e-09
0.0840004
1.61599e-08
0.0840003
4.52142e-08
0.0840005
1.06929e-07
0.0840002
2.78504e-07
0.0840017
6.56935e-07
0.0839993
1.65064e-06
0.0840089
3.97622e-06
0.0839952
9.71225e-06
0.0840491
2.39799e-05
0.0839861
5.751e-05
0.0842277
0.000145078
0.0841444
0.000353687
0.0850197
0.000931725
0.0865064
0.00259422
0.0939158
0.00832191
0.119951
0.0295616
0.124872
0.0897518
0.123694
0.0995716
0.121102
0.0999056
0.118329
0.095535
0.116549
0.0893717
0.0849428
0.115371
0.0840003
1.85366e-10
0.0840003
1.26458e-09
0.0840003
4.08577e-09
0.0840003
1.23309e-08
0.0840004
3.03806e-08
0.0840003
8.00432e-08
0.0840007
1.91326e-07
0.0840002
4.795e-07
0.0840018
1.16333e-06
0.0840013
2.82203e-06
0.0840051
7.01516e-06
0.0840132
1.66107e-05
0.0840172
4.21525e-05
0.0840886
9.94289e-05
0.0841354
0.000256012
0.0844929
0.000634207
0.0852744
0.00174351
0.0883796
0.00527381
0.0989517
0.018891
0.122688
0.0658865
0.124765
0.0974505
0.125363
0.0992654
0.122421
0.0984399
0.119583
0.0921621
0.086584
0.117872
0.0840003
1.4528e-10
0.0840003
8.32021e-10
0.0840003
3.10324e-09
0.0840003
8.11051e-09
0.0840003
2.27928e-08
0.0840004
5.36368e-08
0.0840003
1.40978e-07
0.084001
3.28794e-07
0.0839999
8.36928e-07
0.0840043
1.98596e-06
0.083998
4.93316e-06
0.0840227
1.19749e-05
0.0839918
2.90925e-05
0.0841093
7.24457e-05
0.0840258
0.000175089
0.0844533
0.000447357
0.0847309
0.0011595
0.0869248
0.00333696
0.0945882
0.0110348
0.121656
0.0386914
0.127605
0.0914421
0.12771
0.099116
0.125872
0.100228
0.122924
0.095061
0.0886246
0.120766
0.0840003
8.89537e-11
0.0840003
6.18389e-10
0.0840003
1.97888e-09
0.0840003
6.03105e-09
0.0840004
1.46709e-08
0.0840003
3.92373e-08
0.0840005
9.15205e-08
0.0840002
2.36282e-07
0.0840014
5.53474e-07
0.084
1.39167e-06
0.0840062
3.32741e-06
0.0840005
8.17531e-06
0.0840272
1.99685e-05
0.0840174
4.8216e-05
0.0841278
0.000120447
0.0841858
0.000293267
0.084717
0.00075778
0.0858467
0.0020495
0.0906392
0.00630474
0.107178
0.0220809
0.127423
0.0710461
0.128089
0.0983821
0.128962
0.0992789
0.126789
0.0971399
0.0911738
0.124093
0.0840003
6.77068e-11
0.0840003
3.98829e-10
0.0840003
1.4557e-09
0.0840003
3.89506e-09
0.0840003
1.06912e-08
0.0840004
2.56307e-08
0.0840003
6.61001e-08
0.0840006
1.55763e-07
0.0840002
3.9242e-07
0.0840021
9.36229e-07
0.0839995
2.3085e-06
0.0840114
5.60457e-06
0.0839958
1.36262e-05
0.0840617
3.35503e-05
0.0839939
8.10524e-05
0.0842773
0.000203099
0.0842356
0.000502745
0.0852861
0.00133405
0.0874222
0.00383749
0.096684
0.0129498
0.124163
0.0433428
0.130837
0.0915861
0.129363
0.100629
0.129081
0.0972795
0.092984
0.127063
0.0840003
4.30308e-11
0.0840003
2.73651e-10
0.0840003
9.37699e-10
0.0840003
2.67091e-09
0.0840003
6.91519e-09
0.0840003
1.74449e-08
0.0840004
4.28815e-08
0.0840003
1.05172e-07
0.0840006
2.5659e-07
0.0840007
6.21562e-07
0.0840014
1.52318e-06
0.0840046
3.66167e-06
0.0840029
9.0116e-06
0.0840329
2.1623e-05
0.0840117
5.34528e-05
0.0841872
0.000129262
0.0841851
0.00032335
0.0849329
0.000818972
0.0862693
0.0022413
0.0924628
0.00690121
0.112025
0.0236125
0.131374
0.0720343
0.131876
0.0999457
0.130476
0.0984286
0.0933698
0.12975
0.0840003
2.90898e-11
0.0840003
1.80619e-10
0.0840003
6.22891e-10
0.0840003
1.75598e-09
0.0840003
4.60227e-09
0.0840003
1.13618e-08
0.0840004
2.87205e-08
0.0840003
6.7872e-08
0.0840005
1.72604e-07
0.0840006
3.98473e-07
0.084001
1.02546e-06
0.0840033
2.34484e-06
0.0840016
6.04426e-06
0.0840225
1.38846e-05
0.0840048
3.55871e-05
0.0841311
8.30691e-05
0.0840804
0.000211902
0.0846252
0.000517392
0.0851682
0.00137969
0.0883714
0.00395826
0.0983729
0.013349
0.126902
0.0432848
0.134497
0.0920808
0.134292
0.0981855
0.0929998
0.134036
0.0840003
1.81668e-11
0.0840003
1.13696e-10
0.0840003
3.96692e-10
0.0840003
1.11324e-09
0.0840003
2.9045e-09
0.0840003
7.29006e-09
0.0840003
1.78185e-08
0.0840004
4.39511e-08
0.0840005
1.05325e-07
0.0840004
2.60311e-07
0.0840015
6.17445e-07
0.0840002
1.52871e-06
0.0840082
3.62411e-06
0.0839987
8.96797e-06
0.0840484
2.12821e-05
0.0839985
5.2795e-05
0.0842484
0.000126591
0.084151
0.000317445
0.0851158
0.000799332
0.0864472
0.00219085
0.0932206
0.0067732
0.113212
0.0229959
0.134692
0.0702293
0.137993
0.0941276
0.0908501
0.139087
0.0840003
1.06035e-11
0.0840003
7.3017e-11
0.0840003
2.3714e-10
0.0840003
7.07985e-10
0.0840003
1.75179e-09
0.0840003
4.57191e-09
0.0840003
1.08106e-08
0.0840003
2.71995e-08
0.0840005
6.42939e-08
0.0840003
1.57784e-07
0.0840012
3.79755e-07
0.0840002
9.12629e-07
0.0840053
2.23306e-06
0.0840005
5.2589e-06
0.0840277
1.31302e-05
0.0840071
3.0502e-05
0.0841352
7.70841e-05
0.084124
0.000181315
0.0846489
0.000465091
0.0853439
0.00119871
0.0887718
0.00349992
0.0996789
0.0117774
0.130765
0.0385923
0.138913
0.0840488
0.0843529
0.143893
0.0840003
6.34262e-12
0.0840003
4.19797e-11
0.0840003
1.4139e-10
0.0840003
4.10869e-10
0.0840003
1.03165e-09
0.0840003
2.67389e-09
0.0840003
6.24943e-09
0.0840004
1.59349e-08
0.0840004
3.62994e-08
0.0840004
9.31383e-08
0.0840006
2.08897e-07
0.0840007
5.36991e-07
0.0840027
1.20609e-06
0.0840007
3.07185e-06
0.0840177
6.96974e-06
0.0839998
1.74618e-05
0.0841051
4.05539e-05
0.0840283
9.99959e-05
0.0844849
0.000241456
0.0846939
0.000616749
0.086704
0.00168627
0.0927277
0.00532809
0.111429
0.0191474
0.132717
0.0604837
0.0710778
0.144817
0.0840003
3.75791e-12
0.0840003
2.29783e-11
0.0840003
8.22239e-11
0.0840003
2.23089e-10
0.0840003
5.99037e-10
0.0840003
1.44356e-09
0.0840003
3.6064e-09
0.0840004
8.59306e-09
0.0840003
2.07063e-08
0.0840005
5.0124e-08
0.0840002
1.17862e-07
0.0840013
2.90227e-07
0.0839998
6.67722e-07
0.0840054
1.67349e-06
0.0839988
3.77951e-06
0.0840231
9.62749e-06
0.0840034
2.14505e-05
0.0840975
5.51828e-05
0.0840915
0.000126537
0.0844488
0.00032883
0.08499
0.000858651
0.0874911
0.00261433
0.0962223
0.00948127
0.11794
0.0353844
0.0527164
0.135997
0.0840003
2.13155e-12
0.0840003
1.19002e-11
0.0840003
4.52191e-11
0.0840003
1.15714e-10
0.0840003
3.25774e-10
0.0840003
7.46911e-10
0.0840003
1.95019e-09
0.0840003
4.40599e-09
0.0840003
1.11141e-08
0.0840004
2.55325e-08
0.0840002
6.22339e-08
0.084001
1.47144e-07
0.0839995
3.45583e-07
0.0840047
8.47547e-07
0.0839944
1.92523e-06
0.084026
4.84536e-06
0.0839695
1.08041e-05
0.0841164
2.77336e-05
0.0839218
6.28454e-05
0.084332
0.000163219
0.0842545
0.000419727
0.0855176
0.00124229
0.0892755
0.00430735
0.101758
0.0185327
0.0354956
0.119886
0.0840003
9.22901e-13
0.0840003
7.50053e-12
0.0840003
2.08354e-11
0.0840003
7.27342e-11
0.0840003
1.53434e-10
0.0840003
4.45337e-10
0.0840003
9.59364e-10
0.0840003
2.47594e-09
0.0840003
5.82246e-09
0.0840003
1.3347e-08
0.0840003
3.48086e-08
0.0840005
7.09914e-08
0.0839998
2.05959e-07
0.0840025
3.82918e-07
0.0839952
1.20201e-06
0.0840159
2.0591e-06
0.0839685
7.02608e-06
0.0840776
1.1796e-05
0.0838802
3.90799e-05
0.0841699
7.92474e-05
0.0838665
0.000236647
0.0842884
0.000669941
0.0846482
0.00237246
0.0878481
0.0108144
0.0247669
0.0995481
0.0840003
8.98989e-13
0.0840003
2.99248e-12
0.0840003
1.74023e-11
0.0840003
2.89954e-11
0.0840003
1.24128e-10
0.0840003
2.00541e-10
0.0840003
7.06037e-10
0.0840003
1.29091e-09
0.0840003
3.82869e-09
0.0840004
8.00275e-09
0.0840002
2.01389e-08
0.0840007
5.07246e-08
0.0839995
1.03124e-07
0.0840022
3.1635e-07
0.0839966
5.33764e-07
0.0840058
1.96479e-06
0.0839859
2.77807e-06
0.0840136
1.166e-05
0.0839469
1.73187e-05
0.0840002
6.3349e-05
0.0838116
0.000142589
0.0837563
0.00047114
0.0831083
0.00167728
0.0814576
0.00814724
0.0200596
0.0865628
0.0840003
2.91029e-13
0.0840003
2.89678e-12
0.0840003
7.18439e-12
0.0840003
2.82988e-11
0.0840003
5.28202e-11
0.0840003
1.80791e-10
0.0840003
3.19394e-10
0.0840003
1.07425e-09
0.0840003
1.85186e-09
0.0840003
6.23648e-09
0.0840004
1.12445e-08
0.0840002
3.44915e-08
0.0840003
7.12122e-08
0.0840003
1.91646e-07
0.0839978
4.50661e-07
0.0840046
1.06586e-06
0.0839784
2.86639e-06
0.0840282
6.23385e-06
0.0839126
1.77819e-05
0.0840251
4.14849e-05
0.0837982
0.000120487
0.0837737
0.000360348
0.0832507
0.00130474
0.0816825
0.00627722
0.0187425
0.0827865
0.0840003
2.12632e-13
0.0840003
2.30333e-12
0.0840003
4.557e-12
0.0840003
2.19702e-11
0.0840003
3.42755e-11
0.0840003
1.28998e-10
0.0840003
2.53927e-10
0.0840003
6.61662e-10
0.0840003
1.79784e-09
0.0840003
3.22023e-09
0.0840002
1.23022e-08
0.0840005
1.60582e-08
0.0839995
8.19564e-08
0.084002
7.83191e-08
0.0839944
5.44054e-07
0.0840123
4.05688e-07
0.0839652
3.40395e-06
0.0840599
3.05049e-06
0.0838592
1.88445e-05
0.0841023
3.01658e-05
0.0837268
0.000110868
0.0838355
0.000309787
0.0833934
0.00113561
0.0825539
0.0053544
0.0175564
0.0823836
0.0840003
2.67684e-13
0.0840003
1.13571e-12
0.0840003
5.01421e-12
0.0840003
1.11447e-11
0.0840003
3.62073e-11
0.0840003
7.2855e-11
0.0840003
2.25843e-10
0.0840003
4.24765e-10
0.0840003
1.41844e-09
0.0840004
2.6786e-09
0.0840002
8.52516e-09
0.0840006
1.68326e-08
0.0839997
5.40352e-08
0.0840008
1.0813e-07
0.0839989
3.22427e-07
0.0839975
7.41248e-07
0.0839984
1.92993e-06
0.0839834
4.83027e-06
0.0839823
1.2366e-05
0.0839516
3.28938e-05
0.0838687
9.11452e-05
0.0837746
0.000283646
0.0835261
0.00100667
0.0827553
0.00471915
0.0161408
0.0828045
0.0840003
1.69946e-13
0.0840003
1.20239e-12
0.0840003
3.83534e-12
0.0840003
1.12274e-11
0.0840003
2.78771e-11
0.0840003
7.98823e-11
0.0840003
1.38952e-10
0.0840003
5.70953e-10
0.0840003
7.26789e-10
0.0840004
3.87501e-09
0.0840002
3.79855e-09
0.0840004
2.53021e-08
0.084
1.7057e-08
0.0840001
1.66887e-07
0.0840002
1.00203e-07
0.0839951
1.01247e-06
0.0840046
8.73768e-07
0.0839714
5.81395e-06
0.0840107
8.37722e-06
0.0839207
3.24271e-05
0.0839248
7.67013e-05
0.0837821
0.000254352
0.0836141
0.000888631
0.0830294
0.00411716
0.0145634
0.0833059
0.0840003
2.12441e-13
0.0840003
2.71146e-13
0.0840003
3.89122e-12
0.0840003
3.21636e-12
0.0840003
2.67451e-11
0.0840003
3.02357e-11
0.0840003
1.51631e-10
0.0840003
2.45457e-10
0.0840003
8.4889e-10
0.0840004
1.87065e-09
0.0840002
4.62798e-09
0.0840007
1.38584e-08
0.0839992
2.68559e-08
0.0840029
9.56911e-08
0.0839939
1.6721e-07
0.0840146
6.54427e-07
0.0839666
1.07e-06
0.0840602
4.3836e-06
0.083878
7.86097e-06
0.0841101
2.73838e-05
0.0837679
6.76141e-05
0.0839353
0.000221526
0.0836258
0.000772719
0.0832391
0.00353354
0.0129302
0.0836597
0.0840003
1.4163e-13
0.0840003
5.5289e-13
0.0840003
1.68227e-12
0.0840003
5.37111e-12
0.0840003
1.43967e-11
0.0840003
2.58519e-11
0.0840003
1.48933e-10
0.0840003
6.75469e-11
0.0840003
1.19949e-09
0.0840003
4.89793e-11
0.0840002
8.64677e-09
0.0840005
-6.17212e-10
0.0839995
5.7446e-08
0.0840022
3.09695e-09
0.0839944
3.52964e-07
0.0840136
5.38901e-08
0.0839664
2.12094e-06
0.0840666
1.18024e-06
0.0838642
1.15984e-05
0.0841395
1.67087e-05
0.0837673
6.55889e-05
0.0839763
0.000182962
0.0836619
0.000658784
0.0834116
0.00294808
0.011088
0.0839971
0.0840003
1.06092e-13
0.0840003
1.45561e-13
0.0840003
1.77893e-12
0.0840003
1.17772e-12
0.0840003
1.46507e-11
0.0840003
8.768e-12
0.0840003
8.8883e-11
0.0840003
9.19883e-11
0.0840003
5.46731e-10
0.0840003
7.31121e-10
0.0840004
3.34833e-09
0.0840001
6.92169e-09
0.0840009
2.05452e-08
0.0839982
5.6927e-08
0.0840051
1.36086e-07
0.0839868
4.20988e-07
0.0840307
8.98892e-07
0.0839316
2.93947e-06
0.0841103
6.15753e-06
0.0838155
1.91975e-05
0.0841088
5.00737e-05
0.083774
0.000159129
0.0837914
0.000547582
0.0835416
0.00238167
0.00911294
0.0842783
0.0840003
-1.82324e-13
0.0840003
8.50282e-13
0.0840003
-1.52307e-12
0.0840003
8.90053e-12
0.0840003
-1.0265e-11
0.0840003
6.48508e-11
0.0840003
-7.08156e-11
0.0840003
4.5379e-10
0.0840003
-3.84098e-10
0.0840003
2.96695e-09
0.0840004
-1.83572e-09
0.084
1.71209e-08
0.0840011
-9.14719e-10
0.0839979
9.45026e-08
0.0840062
5.76107e-08
0.0839859
4.72664e-07
0.084033
7.81442e-07
0.0839309
2.4256e-06
0.0841109
6.38734e-06
0.0838199
1.4294e-05
0.0841168
4.41956e-05
0.083791
0.00012584
0.0838721
0.000443521
0.0836509
0.00184735
0.00712879
0.0844573
0.0840003
1.07969e-13
0.0840003
-3.90984e-13
0.0840003
2.03684e-12
0.0840003
-3.57781e-12
0.0840003
1.40274e-11
0.0840003
-8.49463e-12
0.0840003
6.70685e-11
0.0840003
6.90228e-11
0.0840003
2.83453e-10
0.0840004
1.04038e-09
0.0840002
1.11328e-09
0.0840007
9.87509e-09
0.0839996
4.76279e-09
0.0840019
7.41297e-08
0.0839971
2.65139e-08
0.0840052
5.304e-07
0.083989
1.26522e-07
0.0840128
3.43363e-06
0.0839641
1.42458e-06
0.0840252
1.69846e-05
0.0839055
2.6033e-05
0.083958
0.000104497
0.0839339
0.000329284
0.083733
0.00136023
0.00523475
0.0845338
0.0840003
1.29213e-13
0.0840003
-3.10302e-13
0.0840003
1.48973e-12
0.0840003
-3.08818e-12
0.0840003
1.11916e-11
0.0840003
-1.75799e-11
0.0840003
9.27974e-11
0.0840003
-1.19155e-10
0.0840003
6.68456e-10
0.0840003
-6.96038e-10
0.0840002
4.17639e-09
0.0840005
-3.16032e-09
0.0839996
2.25416e-08
0.0840022
4.10353e-09
0.0839951
9.86784e-08
0.084013
1.63039e-07
0.0839701
4.7893e-07
0.0840648
1.5023e-06
0.0838785
2.7277e-06
0.0841482
9.66925e-06
0.0838072
1.93137e-05
0.0840398
6.88239e-05
0.0839893
0.000218192
0.0838211
0.000894845
0.00345284
0.0846048
0.0840003
-1.3786e-13
0.0840003
6.22107e-13
0.0840003
-2.06979e-12
0.0840003
6.39675e-12
0.0840003
-1.33261e-11
0.0840003
3.51396e-11
0.0840003
-6.0911e-11
0.0840003
1.66255e-10
0.0840004
-1.84087e-10
0.0840003
6.04908e-10
0.0840004
9.26315e-10
0.0840001
1.58427e-11
0.0840006
1.73036e-08
0.0839998
-2.35765e-08
0.0839999
1.67933e-07
0.0840016
-2.33932e-07
0.0839908
1.15127e-06
0.0840135
-1.30197e-06
0.0839641
5.79438e-06
0.0840194
-1.61967e-06
0.0839455
2.04115e-05
0.0839505
2.14938e-05
0.0840679
0.000113102
0.0838807
0.000436588
0.00172157
0.0847086
0.0840003
0.0840003
0.0840003
0.0840003
0.0840003
0.0840003
0.0840003
0.0840003
0.0840003
0.0840004
0.0840003
0.0840004
0.0840002
0.084
0.0840014
0.0839944
0.0840124
0.0839658
0.0840499
0.0839149
0.0840432
0.0838895
0.0841125
0.0838645
0.0847551
0.0394511
0.0434564
0.0152563
0.0241431
-0.00746672
0.0226889
-0.0171007
0.00963247
-0.0238761
0.00676473
-0.0271938
0.00330622
-0.0283225
0.00112189
-0.0298863
0.00156533
-0.0317037
0.00182341
-0.0332333
0.00153878
-0.0343221
0.00109783
-0.0350624
0.000746271
-0.035534
0.000472298
-0.0360921
0.000544441
-0.0366516
0.000539723
-0.0369747
0.00030191
-0.0369629
-5.85632e-05
-0.0366595
-0.000369374
-0.0360587
-0.000681308
-0.0351358
-0.00100615
-0.0339207
-0.00129346
-0.0324917
-0.00150204
-0.0308907
-0.00166075
-0.029186
-0.00175271
-0.0274195
-0.00180478
-0.0256081
-0.00183639
-0.0237552
-0.00186658
-0.0218665
-0.00189995
-0.0199182
-0.0019491
-0.0179224
-0.00199
-0.0158664
-0.00205243
-0.013732
-0.00212518
-0.0115539
-0.00216335
-0.00937321
-0.00216127
-0.00719532
-0.00215486
-0.00500613
-0.00216517
-0.00279474
-0.00218421
-0.000534748
-0.00222647
0.00175193
-0.00225148
0.00396179
-0.00216993
0.00608917
-0.00208085
0.00814797
-0.00200718
0.0101544
-0.00194971
0.0120914
-0.00187741
0.0139569
-0.00180315
0.0157692
-0.00175077
0.0175696
-0.00173711
0.0193347
-0.00170169
0.021038
-0.00163922
0.0226729
-0.00157257
0.0242505
-0.00151509
0.025766
-0.00146019
0.0272255
-0.00140688
0.0286302
-0.0013563
0.0299766
-0.00130613
0.0312676
-0.00125707
0.0325021
-0.00120949
0.033681
-0.00116228
0.0348095
-0.00111663
0.0358831
-0.00107163
0.036906
-0.00102737
0.0378787
-0.000984152
0.0388057
-0.000941521
0.039682
-0.000900081
0.0405136
-0.00085851
0.0413008
-0.000818717
0.0420415
-0.000778321
0.0427433
-0.000739489
0.0433999
-0.000700305
0.0440188
-0.000662022
0.044598
-0.000623754
0.0451392
-0.000586044
0.0456456
-0.000548473
0.0461166
-0.000511581
0.0465548
-0.000474952
0.0469615
-0.000439233
0.0473377
-0.000404057
0.0476853
-0.00037003
0.0480062
-0.000336891
0.0482995
-0.000305127
0.0485707
-0.00027438
0.048815
-0.000245155
0.0490403
-0.000216897
0.0492411
-0.000190223
0.049423
-0.000164696
0.0495852
-0.000140377
0.0497263
-0.00011745
0.0498532
-9.60338e-05
0.0499578
-7.5468e-05
0.0500496
-5.56519e-05
0.0501217
-3.74437e-05
0.0501799
-1.96258e-05
0.0502203
-1.86935e-06
0.0502468
1.33102e-05
0.0502578
2.95998e-05
0.0502504
4.76888e-05
0.0502228
6.84125e-05
0.0501691
9.3849e-05
0.0500826
0.000126632
0.000167903
0.0577185
0.0643808
0.0410181
0.0407929
0.032299
0.0313878
0.0189984
0.0229343
0.00992746
0.0158276
0.00139827
0.0118184
-0.00661016
0.00913524
-0.012283
0.00725166
-0.0159681
0.00551926
-0.0183637
0.00394394
-0.0198243
0.0025769
-0.0210078
0.00194047
-0.0221255
0.00158884
-0.0227232
0.00113234
-0.0231156
0.000916955
-0.0232696
0.000438094
-0.0230346
-0.000335135
-0.0224397
-0.00103099
-0.0214951
-0.0017119
-0.0201992
-0.0023958
-0.0186324
-0.00294783
-0.0169233
-0.00329539
-0.0150902
-0.00357001
-0.0132069
-0.00369937
-0.0112959
-0.00376567
-0.00936084
-0.00381418
-0.007391
-0.00387177
-0.00537599
-0.00393934
-0.00331653
-0.00402367
-0.00119906
-0.00411723
0.000972964
-0.00423253
0.00310979
-0.0042676
0.00521605
-0.00426968
0.00731875
-0.00425987
0.00942998
-0.00425626
0.0115188
-0.00424063
0.0135764
-0.00422367
0.0155691
-0.00419956
0.017496
-0.00415336
0.0194164
-0.00406069
0.0213241
-0.00394933
0.0231989
-0.00383751
0.0250244
-0.00372397
0.0268054
-0.003604
0.0285362
-0.00347008
0.0302069
-0.00335656
0.0318048
-0.00327114
0.0333814