/*--------------------------------*- C++ -*----------------------------------*\
  =========                 |
  \\      /  F ield         | OpenFOAM: The Open Source CFD Toolbox
   \\    /   O peration     | Website:  https://openfoam.org
    \\  /    A nd           | Version:  13
     \\/     M anipulation  |
\*---------------------------------------------------------------------------*/
FoamFile
{
    format      ascii;
    class       volScalarField;
    location    "8.5";
    object      rho;
}
// * * * * * * * * * * * * * * * * * * * * * * * * * * * * * * * * * * * * * //

dimensions      [1 -3 0 0 0 0 0];

internalField   nonuniform List<scalar> 
5250
(
1.40001
1.40003
1.40007
1.40021
1.40046
1.40132
1.40279
1.40786
1.41713
1.44499
1.50117
1.63457
1.90422
2.592
5.25248
5.74362
5.68597
5.66474
5.68638
5.76626
5.85067
5.90313
5.94445
5.97575
6.00247
1.40001
1.40003
1.40008
1.40019
1.40052
1.40113
1.40319
1.40684
1.41875
1.44173
1.50352
1.62913
1.90192
2.57573
5.21326
5.74243
5.6848
5.66189
5.68372
5.76383
5.84828
5.90106
5.94327
5.97545
6.00323
1.40001
1.40003
1.40008
1.40018
1.40051
1.4011
1.40309
1.40674
1.41818
1.44099
1.50108
1.62452
1.89212
2.54417
5.12541
5.74011
5.68125
5.65248
5.67375
5.75216
5.8362
5.88766
5.93
5.96158
5.98936
1.40001
1.40003
1.40008
1.40017
1.4005
1.40105
1.40302
1.4064
1.41774
1.43919
1.49806
1.61697
1.87768
2.49691
4.9866
5.73962
5.67686
5.63651
5.65568
5.73218
5.8124
5.86512
5.90501
5.93734
5.96541
1.40001
1.40002
1.40008
1.40016
1.40047
1.401
1.40287
1.40608
1.41687
1.43725
1.49348
1.60723
1.85757
2.43564
4.79309
5.74385
5.67299
5.61469
5.6317
5.70307
5.78184
5.82927
5.86916
5.89849
5.92933
1.40001
1.40002
1.40007
1.40015
1.40044
1.40093
1.40268
1.40567
1.41579
1.43479
1.48775
1.59485
1.83196
2.36179
4.53887
5.75494
5.67124
5.58761
5.60137
5.66605
5.7415
5.78546
5.82037
5.84969
5.88024
1.40001
1.40002
1.40007
1.40014
1.4004
1.40087
1.40241
1.40532
1.41422
1.43234
1.48026
1.58049
1.80033
2.27772
4.21882
5.77797
5.67431
5.55576
5.56482
5.61981
5.68891
5.72622
5.7551
5.77721
5.80935
1.40001
1.40002
1.40006
1.40013
1.40037
1.40077
1.4022
1.40467
1.41298
1.42862
1.47284
1.56277
1.76462
2.18636
3.83452
5.81189
5.68473
5.52315
5.52551
5.56759
5.62614
5.65284
5.67012
5.68062
5.70691
1.40001
1.40002
1.40005
1.40012
1.40031
1.4007
1.40187
1.40421
1.4112
1.42546
1.46377
1.54472
1.72474
2.09479
3.39959
5.83241
5.69643
5.49315
5.4845
5.5085
5.55148
5.56019
5.55748
5.54242
5.54663
1.40001
1.40002
1.40004
1.40011
1.40025
1.40066
1.40151
1.40391
1.40918
1.42308
1.45408
1.52827
1.68477
2.01214
2.98815
5.77557
5.68072
5.46956
5.43949
5.44369
5.46313
5.45154
5.41909
5.34942
5.29321
1.40001
1.40002
1.40004
1.40009
1.40024
1.40054
1.40139
1.40331
1.40822
1.41992
1.44803
1.51267
1.65392
1.94701
2.7395
5.51242
5.55401
5.45256
5.37938
5.36943
5.35864
5.32482
5.23419
5.02237
4.42597
1.40001
1.40001
1.40004
1.40008
1.40021
1.40046
1.40122
1.40284
1.40723
1.41719
1.44229
1.49863
1.62513
1.88787
2.53361
5.04587
5.45337
5.40344
5.31203
5.28812
5.25474
5.18629
5.04056
4.74677
4.11524
1.40001
1.40001
1.40003
1.40008
1.40016
1.40044
1.40097
1.40258
1.40595
1.41525
1.43563
1.4865
1.59524
1.82931
2.35571
4.50575
5.39667
5.36049
5.25496
5.20055
5.1509
5.05482
4.86742
4.56149
4.08109
1.40001
1.40001
1.40003
1.40006
1.40015
1.40035
1.40084
1.40215
1.40495
1.41289
1.42971
1.47321
1.5661
1.76835
2.19575
3.89775
5.38071
5.33847
5.21287
5.12183
5.04853
4.93444
4.74488
4.46393
4.0879
1.40001
1.40001
1.40002
1.40005
1.40012
1.40028
1.40071
1.40167
1.40419
1.41012
1.42468
1.45895
1.53739
1.7054
2.05057
3.22355
5.34444
5.31728
5.19858
5.05773
4.96013
4.83592
4.65247
4.40327
4.09151
1.40001
1.40001
1.40002
1.40004
1.40009
1.40023
1.40056
1.40133
1.4034
1.40788
1.4201
1.44659
1.51147
1.6487
1.93376
2.68953
5.13957
5.26366
5.18273
5.01
4.88903
4.76093
4.58331
4.35665
4.08591
1.40001
1.40001
1.40002
1.40003
1.40008
1.40018
1.40047
1.40103
1.40281
1.40613
1.41653
1.43694
1.49156
1.60359
1.84703
2.40356
4.58414
5.16104
5.11478
4.97551
4.82961
4.69808
4.53037
4.32073
4.07863
1.40001
1.40001
1.40001
1.40003
1.40006
1.40016
1.40033
1.40092
1.40195
1.40541
1.41185
1.43131
1.47024
1.56731
1.76266
2.18396
3.84598
5.0859
5.06072
4.95859
4.78639
4.64314
4.48507
4.29288
4.07264
1.40001
1.40001
1.40001
1.40002
1.40005
1.40011
1.40029
1.40061
1.40171
1.40363
1.41007
1.42203
1.45662
1.52661
1.68765
2.00096
3.02927
4.98949
5.03218
4.95822
4.77962
4.60822
4.44884
4.27145
4.07112
1.40001
1.40001
1.40001
1.40002
1.40004
1.40008
1.40021
1.40047
1.40128
1.40274
1.40757
1.4165
1.443
1.49619
1.623
1.87186
2.49142
4.65154
4.98991
4.93122
4.77871
4.58808
4.42453
4.25581
4.07122
1.40001
1.40001
1.40001
1.40002
1.40003
1.40007
1.40015
1.40039
1.40087
1.40225
1.40526
1.41317
1.43128
1.47484
1.57089
1.77455
2.20474
3.89846
4.89733
4.87286
4.77984
4.5809
4.40996
4.24982
4.07637
1.40001
1.40001
1.40001
1.40001
1.40002
1.40005
1.40011
1.40029
1.40063
1.40166
1.4038
1.4097
1.42268
1.45547
1.52699
1.68477
1.99106
3.02117
4.75917
4.84102
4.77587
4.60994
4.41589
4.24933
4.08874
1.40001
1.40001
1.40001
1.40001
1.40002
1.40004
1.40008
1.40021
1.40044
1.40123
1.40261
1.40717
1.41568
1.44079
1.49088
1.61162
1.84287
2.40732
4.36064
4.80328
4.75866
4.63488
4.44186
4.26529
4.10481
1.40001
1.40001
1.40001
1.40001
1.40001
1.40003
1.40006
1.40015
1.40032
1.40087
1.40186
1.40514
1.41109
1.4295
1.46546
1.55647
1.7369
2.11231
3.5564
4.72058
4.70835
4.64327
4.47899
4.29384
4.13132
1.40001
1.40001
1.40001
1.40001
1.40001
1.40002
1.40005
1.40009
1.40024
1.40055
1.40139
1.40328
1.40807
1.41941
1.44624
1.50773
1.64104
1.89069
2.57699
4.50531
4.71381
4.6594
4.52898
4.32979
4.16344
1.40001
1.40001
1.40001
1.40001
1.40001
1.40002
1.40003
1.40007
1.40017
1.40037
1.40101
1.40215
1.40596
1.41276
1.43392
1.47467
1.57738
1.77533
2.21256
3.87634
4.6518
4.63441
4.55957
4.38463
4.20816
1.40001
1.40001
1.40001
1.40001
1.40001
1.40001
1.40002
1.40005
1.40012
1.40026
1.40066
1.40156
1.40382
1.40928
1.4222
1.45319
1.52286
1.67291
1.95783
2.92012
4.46572
4.62059
4.57565
4.45541
4.27992
1.40001
1.40001
1.40001
1.40001
1.40001
1.40001
1.40002
1.40004
1.40008
1.40018
1.40045
1.40102
1.40267
1.40591
1.41555
1.43472
1.4853
1.58888
1.80023
2.28145
3.97854
4.57445
4.5607
4.50976
4.38175
1.40001
1.40001
1.40001
1.40001
1.40001
1.40001
1.40001
1.40002
1.40006
1.40012
1.40031
1.40068
1.40175
1.40404
1.41011
1.42377
1.45719
1.53084
1.68887
1.98947
3.06319
4.40915
4.57373
4.55117
4.49173
1.40001
1.40001
1.40001
1.40001
1.40001
1.40001
1.40001
1.40002
1.40004
1.40008
1.40021
1.40043
1.40119
1.4025
1.40689
1.4148
1.43873
1.48522
1.59894
1.80422
2.31197
3.98831
4.55727
4.62558
4.62537
1.40001
1.40001
1.40001
1.40001
1.40001
1.40001
1.40001
1.40001
1.40003
1.40005
1.40014
1.40028
1.40078
1.40164
1.4045
1.40968
1.42557
1.45658
1.53576
1.69082
1.99824
3.07911
4.4114
4.74575
4.83869
1.40001
1.40001
1.40001
1.40001
1.40001
1.40001
1.40001
1.40001
1.40002
1.40004
1.40008
1.40021
1.40045
1.40118
1.40267
1.40676
1.41573
1.43848
1.48828
1.60109
1.81387
2.33401
4.01325
4.8558
5.18062
1.40001
1.40001
1.40001
1.40001
1.40001
1.40001
1.40001
1.40001
1.40001
1.40003
1.40006
1.40014
1.40031
1.40076
1.40186
1.40434
1.41095
1.42519
1.46153
1.53913
1.70714
2.03283
3.13166
4.8344
5.65385
1.40001
1.40001
1.40001
1.40001
1.40001
1.40001
1.40001
1.40001
1.40001
1.40002
1.40004
1.4001
1.40021
1.40057
1.4012
1.40331
1.40715
1.41902
1.44241
1.5037
1.62921
1.8901
2.54937
4.58825
6.14885
1.40001
1.40001
1.40001
1.40001
1.40001
1.40001
1.40001
1.40001
1.40001
1.40002
1.40003
1.40007
1.40017
1.40042
1.40096
1.40252
1.40563
1.41493
1.43373
1.48375
1.58849
1.81957
2.35197
4.17532
6.44229
1.40001
1.40001
1.40001
1.40001
1.40001
1.40001
1.40001
1.40001
1.40001
1.40001
1.40003
1.40006
1.40015
1.40033
1.40085
1.40199
1.40503
1.41209
1.42991
1.471
1.56684
1.77071
2.25077
3.78272
6.53816
1.40001
1.40001
1.40001
1.40001
1.40001
1.40001
1.40001
1.40001
1.40001
1.40001
1.40003
1.40005
1.40014
1.40028
1.40079
1.40171
1.40475
1.41059
1.4281
1.46423
1.55565
1.74428
2.18006
3.59719
6.50205
1.40001
1.40001
1.40001
1.40001
1.40001
1.40001
1.40001
1.40001
1.40001
1.40001
1.40002
1.40005
1.40012
1.4003
1.40067
1.40182
1.40404
1.41099
1.42491
1.46331
1.54522
1.72978
2.12725
3.45824
6.42911
1.40001
1.40001
1.40001
1.40001
1.40001
1.40001
1.40001
1.40001
1.40001
1.40001
1.40002
1.40005
1.40012
1.40026
1.40073
1.40154
1.40439
1.40951
1.42592
1.45825
1.54274
1.71491
2.088
3.32475
6.37438
1.40001
1.40001
1.40001
1.40001
1.40001
1.40001
1.40001
1.40001
1.40001
1.40001
1.40002
1.40004
1.40012
1.40025
1.4007
1.40152
1.40417
1.40941
1.4248
1.45701
1.53805
1.70616
2.06105
3.2245
6.30164
1.40001
1.40001
1.40001
1.40001
1.40001
1.40001
1.40001
1.40001
1.40001
1.40001
1.40002
1.40005
1.4001
1.40028
1.4006
1.40169
1.4036
1.41014
1.42239
1.45801
1.53152
1.70062
2.03909
3.14849
6.21605
1.40001
1.40001
1.40001
1.40001
1.40001
1.40001
1.40001
1.40001
1.40001
1.40001
1.40002
1.40005
1.4001
1.40027
1.40058
1.40166
1.40351
1.4099
1.42179
1.45661
1.52813
1.69346
2.02127
3.07959
6.13245
1.40001
1.40001
1.40001
1.40001
1.40001
1.40001
1.40001
1.40001
1.40001
1.40001
1.40002
1.40004
1.40011
1.40024
1.40062
1.40149
1.4037
1.40915
1.42221
1.45395
1.52671
1.68548
2.00666
3.01793
6.05471
1.40001
1.40001
1.40001
1.40001
1.40001
1.40001
1.40001
1.40001
1.40001
1.40001
1.40002
1.40004
1.40011
1.40023
1.40063
1.4014
1.40376
1.40864
1.42234
1.45188
1.52505
1.67862
1.99425
2.96325
5.98132
1.40001
1.40001
1.40001
1.40001
1.40001
1.40001
1.40001
1.40001
1.40001
1.40001
1.40002
1.40005
1.40009
1.40026
1.40055
1.40153
1.40341
1.40908
1.42086
1.45258
1.52064
1.67527
1.98336
2.91682
5.91278
1.40001
1.40001
1.40001
1.40001
1.40001
1.40001
1.40001
1.40001
1.40001
1.40001
1.40002
1.40005
1.40009
1.40025
1.40056
1.40147
1.40342
1.40879
1.42078
1.45135
1.51906
1.67047
1.97729
2.87872
5.8525
1.40001
1.40001
1.40001
1.40001
1.40001
1.40001
1.40001
1.40001
1.40001
1.40001
1.40002
1.40004
1.4001
1.40024
1.40055
1.40149
1.40328
1.40894
1.42001
1.45134
1.51684
1.66731
1.97384
2.84909
5.80311
1.40001
1.40001
1.40001
1.40001
1.40001
1.40001
1.40001
1.40001
1.40001
1.40001
1.40002
1.40004
1.40011
1.40022
1.4006
1.40133
1.40357
1.40815
1.42109
1.44888
1.51791
1.66261
1.97368
2.82711
5.76664
1.40001
1.40001
1.40001
1.40001
1.40001
1.40001
1.40001
1.40001
1.40001
1.40001
1.40002
1.40004
1.4001
1.40022
1.40061
1.40129
1.40366
1.40781
1.42151
1.44768
1.51802
1.66005
1.97354
2.81225
5.74284
1.40001
1.40001
1.40001
1.40001
1.40001
1.40001
1.40001
1.40001
1.40001
1.40001
1.40002
1.40005
1.40009
1.40025
1.40052
1.40149
1.40315
1.40887
1.4194
1.45066
1.51397
1.66234
1.97109
2.80418
5.73115
2.25215
1.8341
2.14399
1.98531
1.88249
1.85844
1.84328
1.80848
1.76931
1.73572
1.70828
1.67904
1.64609
1.62508
1.61788
1.61592
1.61881
1.63606
1.66514
1.70334
1.74713
1.7935
1.84016
1.88473
1.92779
1.96838
2.00678
2.04302
2.07839
2.1105
2.1425
2.1739
2.20302
2.23013
2.25478
2.27788
2.29906
2.31649
2.3333
2.34844
2.36269
2.37251
2.38245
2.38903
2.39496
2.39853
2.40138
2.40135
2.40049
2.39796
2.39457
2.39008
2.38363
2.37718
2.36883
2.35995
2.34975
2.33873
2.32671
2.31442
2.30059
2.28696
2.27185
2.25736
2.24077
2.22545
2.20791
2.19144
2.17343
2.15582
2.13737
2.11909
2.10007
2.08152
2.06212
2.04339
2.0239
2.00511
1.98566
1.96704
1.94761
1.9294
1.90993
1.89224
1.87283
1.85558
1.83652
1.81947
1.80109
1.7841
1.76653
1.74981
1.73299
1.71691
1.70107
1.6862
1.6719
1.65925
1.64796
1.64079
2.77499
2.39477
2.33827
2.09892
1.89251
1.8434
1.7952
1.72904
1.67105
1.62944
1.59916
1.57082
1.54279
1.5186
1.50684
1.50208
1.50273
1.52044
1.54999
1.59183
1.63952
1.69082
1.74366
1.79543
1.84492
1.89283
1.93912
1.98357
2.02437
2.06414
2.10107
2.13953
2.17502
2.20876
2.24006
2.26909
2.29534
2.31961
2.3419
2.36333
2.38186
2.39901
2.41273
2.42549
2.43468
2.44505
2.45139
2.45681
2.45859
2.46103
2.46078
2.45986
2.4566
2.4531
2.44688
2.44095
2.43241
2.42425
2.41334
2.40335
2.39019
2.37844
2.36362
2.34997
2.33409
2.3187
2.30196
2.28527
2.26761
2.24999
2.23146
2.21306
2.19388
2.17481
2.15527
2.13571
2.11597
2.09622
2.07635
2.05673
2.03672
2.01741
1.99734
1.97835
1.95846
1.9396
1.92019
1.90139
1.88262
1.86387
1.84586
1.82752
1.8103
1.79264
1.77629
1.75977
1.74492
1.73057
1.71863
1.70972
3.27384
2.8093
2.56812
2.37144
2.14237
2.00739
1.86383
1.75659
1.67182
1.62127
1.58585
1.54006
1.50147
1.47068
1.45375
1.44477
1.44655
1.46543
1.49658
1.5407
1.59411
1.65171
1.71166
1.77041
1.82733
1.88226
1.93453
1.98664
2.03536
2.08476
2.13107
2.17802
2.21988
2.26212
2.29905
2.33577
2.36798
2.39957
2.427
2.45383
2.47654
2.49728
2.51448
2.52928
2.54157
2.55168
2.56139
2.56718
2.57031
2.57189
2.5727
2.57151
2.5691
2.56476
2.55908
2.55217
2.54373
2.53442
2.52381
2.51202
2.49971
2.48557
2.47179
2.45568
2.44046
2.42282
2.40621
2.38737
2.36954
2.34971
2.3309
2.3103
2.29076
2.26969
2.24966
2.22843
2.20801
2.18692
2.16617
2.14543
2.12443
2.10413
2.08307
2.06317
2.04239
2.02266
2.00249
1.98316
1.96373
1.94478
1.92599
1.9075
1.88939
1.87169
1.85443
1.83794
1.82212
1.80781
1.79479
1.78584
3.52486
3.0646
2.7589
2.55157
2.36268
2.21488
2.09021
1.94692
1.81254
1.69607
1.63111
1.57186
1.52162
1.48236
1.46
1.45285
1.45782
1.47812
1.51494
1.56569
1.62612
1.691
1.75916
1.82611
1.89123
1.9538
2.01385
2.07256
2.12951
2.1851
2.23863
2.29024
2.33925
2.38517
2.4278
2.46707
2.50338
2.53636
2.5669
2.59425
2.61866
2.64023
2.65785
2.67362
2.6849
2.69611
2.70453
2.71129
2.71251
2.71348
2.7119
2.71049
2.70551
2.70085
2.69264
2.68491
2.67408
2.66361
2.65059
2.6378
2.62284
2.60816
2.59141
2.57518
2.55676
2.53914
2.51923
2.50038
2.47931
2.45939
2.4374
2.41656
2.39382
2.37232
2.34904
2.32727
2.30368
2.28195
2.25821
2.23661
2.21282
2.19133
2.16767
2.14629
2.12342
2.10221
2.08008
2.05878
2.03743
2.01635
1.99578
1.97514
1.95542
1.93552
1.91686
1.89813
1.88108
1.86445
1.85032
1.83884
3.65482
3.2493
2.93785
2.71029
2.53442
2.38031
2.26193
2.14028
2.02141
1.90623
1.79836
1.70898
1.63494
1.58151
1.54554
1.53107
1.53562
1.55499
1.5949
1.65337
1.71961
1.7898
1.86367
1.93816
2.01034
2.08024
2.1461
2.20973
2.26975
2.32774
2.38215
2.43388
2.48166
2.52611
2.56642
2.60352
2.63667
2.66712
2.69404
2.71832
2.73955
2.75781
2.77303
2.78555
2.79455
2.80325
2.80931
2.81446
2.81344
2.812
2.80762
2.80405
2.79724
2.79069
2.78115
2.77152
2.75955
2.74715
2.73305
2.71827
2.70234
2.68566
2.66826
2.65007
2.63148
2.612
2.59252
2.57195
2.55179
2.53024
2.50946
2.48717
2.46588
2.44321
2.42151
2.39872
2.37657
2.35374
2.3312
2.3084
2.28576
2.26325
2.24108
2.21873
2.19681
2.17458
2.15312
2.13101
2.11008
2.08827
2.06792
2.04659
2.02688
2.00627
1.98742
1.9679
1.95043
1.9329
1.91804
1.90543
3.73556
3.38344
3.09239
2.86093
2.67988
2.52946
2.40443
2.29424
2.18807
2.09051
2.00001
1.91706
1.84918
1.79198
1.75787
1.74051
1.74486
1.76147
1.7938
1.845
1.9033
1.96396
2.03633
2.10857
2.18253
2.25003
2.31605
2.3753
2.43281
2.48432
2.53373
2.57816
2.62017
2.6577
2.69261
2.72353
2.75179
2.77648
2.79872
2.81808
2.83483
2.84905
2.86007
2.86904
2.87441
2.87992
2.88331
2.88595
2.88378
2.87973
2.87359
2.86744
2.85973
2.8512
2.8413
2.83003
2.81794
2.80423
2.79015
2.7743
2.75835
2.74062
2.7229
2.70353
2.68424
2.66351
2.64288
2.62105
2.59929
2.57666
2.554
2.53089
2.50751
2.48423
2.46029
2.43716
2.41292
2.39007
2.36585
2.34369
2.31974
2.29784
2.27417
2.25241
2.22915
2.2075
2.18483
2.16336
2.14135
2.12018
2.09888
2.07818
2.05768
2.03766
2.01813
1.99919
1.98107
1.96407
1.94851
1.93612
3.78763
3.48494
3.21533
2.99272
2.80964
2.66029
2.5359
2.42907
2.33422
2.2487
2.17738
2.11376
2.06421
2.02129
1.99546
1.98083
1.98199
1.99073
2.00477
2.02974
2.05739
2.09587
2.14915
2.20898
2.27734
2.34571
2.40877
2.46641
2.51843
2.56607
2.60961
2.65029
2.68771
2.72265
2.75469
2.7844
2.81094
2.83487
2.85588
2.87449
2.89032
2.9038
2.91422
2.9227
2.92774
2.93283
2.93632
2.93872
2.93731
2.93298
2.92676
2.91978
2.91174
2.90251
2.89222
2.88041
2.86781
2.85366
2.83904
2.82296
2.80666
2.78896
2.77125
2.75218
2.73317
2.71289
2.69268
2.67131
2.64998
2.62773
2.60537
2.58252
2.55926
2.53612
2.51213
2.48893
2.46467
2.44184
2.41739
2.39457
2.3701
2.34728
2.32307
2.30021
2.27649
2.25362
2.23056
2.20775
2.18542
2.16284
2.14125
2.11911
2.09833
2.0769
2.05709
2.03674
2.01834
1.99989
1.98399
1.97005
3.82215
3.5594
3.31402
3.10094
2.92352
2.77449
2.6524
2.5505
2.46527
2.39552
2.34303
2.30125
2.27292
2.24834
2.23298
2.22338
2.22155
2.21698
2.20133
2.18745
2.19579
2.21231
2.2397
2.28367
2.34006
2.4079
2.47565
2.53695
2.59137
2.64006
2.68355
2.7241
2.7607
2.79509
2.82673
2.85581
2.88162
2.90523
2.92538
2.94371
2.95869
2.9721
2.98211
2.99087
2.9955
3.00049
3.00374
3.00595
3.0049
3.00058
2.99443
2.9867
2.97841
2.96844
2.95813
2.94586
2.93334
2.91882
2.9042
2.88765
2.87108
2.8527
2.83435
2.81431
2.7944
2.77294
2.75164
2.72907
2.70655
2.68317
2.65964
2.6358
2.61154
2.58751
2.56307
2.53928
2.51467
2.49088
2.4663
2.44248
2.41811
2.39428
2.37032
2.34657
2.32314
2.29952
2.27667
2.2533
2.23107
2.20807
2.18652
2.16406
2.1433
2.12162
2.10186
2.08133
2.06299
2.04445
2.02849
2.01456
3.8491
3.6167
3.39417
3.19348
3.02183
2.87824
2.7596
2.66508
2.59498
2.54503
2.51893
2.49234
2.48559
2.48925
2.47792
2.46801
2.4582
2.43364
2.38135
2.3388
2.31562
2.32051
2.33496
2.3575
2.39921
2.45088
2.51519
2.58122
2.64171
2.69467
2.74094
2.78164
2.81836
2.85159
2.88198
2.90975
2.93479
2.95724
2.97687
2.99422
3.0082
3.02069
3.02965
3.03757
3.04076
3.04464
3.04649
3.04818
3.04639
3.04219
3.03511
3.02675
3.01677
3.00574
2.99372
2.98052
2.96661
2.9514
2.93568
2.91866
2.90126
2.88264
2.86376
2.84373
2.82353
2.80227
2.78085
2.75854
2.73598
2.71282
2.68927
2.66556
2.64141
2.61767
2.59311
2.56934
2.54443
2.52068
2.49567
2.47197
2.44711
2.4235
2.39903
2.37551
2.35159
2.32821
2.30494
2.28181
2.2593
2.23658
2.21487
2.19278
2.17196
2.15076
2.13102
2.11113
2.09288
2.07516
2.0593
2.04648
3.87189
3.66367
3.46044
3.27441
3.11029
2.97434
2.86345
2.78095
2.73558
2.71022
2.69491
2.69521
2.72446
2.73519
2.72202
2.70912
2.68173
2.62037
2.54579
2.48423
2.44164
2.42331
2.42968
2.44134
2.45955
2.49645
2.5417
2.59751
2.65879
2.71608
2.76711
2.81081
2.84943
2.88238
2.91263
2.93872
2.96279
2.98358
3.00209
3.01765
3.03112
3.04203
3.05047
3.05683
3.06013
3.06246
3.06403
3.06425
3.06241
3.05737
3.05061
3.04161
3.03181
3.02033
3.00861
2.99528
2.98184
2.96672
2.95147
2.93457
2.9175
2.89897
2.88022
2.86028
2.84003
2.8189
2.79726
2.77513
2.75219
2.72927
2.70534
2.68219
2.65762
2.63428
2.60919
2.58564
2.56027
2.53654
2.51117
2.48735
2.46227
2.43843
2.41381
2.39004
2.36601
2.34239
2.31903
2.29567
2.27305
2.25013
2.22831
2.20605
2.18517
2.16388
2.14421
2.12436
2.1064
2.08902
2.07361
2.06138
3.89295
3.70437
3.51873
3.34731
3.19444
3.06998
2.97195
2.91497
2.89738
2.88521
2.89062
2.93683
2.97792
2.97123
2.95888
2.93417
2.87724
2.78414
2.6961
2.62396
2.5708
2.53696
2.52149
2.5249
2.53389
2.54775
2.57625
2.61367
2.65998
2.71443
2.76734
2.81769
2.86066
2.8991
2.93052
2.95894
2.98276
3.00433
3.02287
3.03911
3.05281
3.06447
3.07368
3.08116
3.08539
3.08807
3.08976
3.09074
3.08989
3.08616
3.08042
3.07255
3.0633
3.05218
3.04041
3.02703
3.01337
2.99803
2.98252
2.96528
2.94796
2.92905
2.9101
2.88978
2.86937
2.84788
2.82613
2.80365
2.78079
2.75779
2.73422
2.71083
2.68666
2.66291
2.63829
2.61424
2.58942
2.56515
2.54033
2.51593
2.49129
2.4669
2.44262
2.41838
2.3946
2.37067
2.34751
2.32399
2.30158
2.2786
2.2571
2.23488
2.21447
2.19335
2.17436
2.15491
2.1379
2.12112
2.1064
2.09565
3.91696
3.74379
3.57311
3.41804
3.28005
3.17225
3.09775
3.08135
3.07196
3.0798
3.12632
3.19115
3.21029
3.19759
3.17494
3.12578
3.02549
2.92361
2.83381
2.75898
2.69982
2.65589
2.62557
2.61051
2.60529
2.6122
2.62127
2.63914
2.67052
2.70449
2.74976
2.80036
2.84913
2.89276
2.92997
2.96154
2.98773
3.00999
3.02897
3.04476
3.05868
3.06959
3.07899
3.08634
3.09114
3.09316
3.09455
3.09517
3.0942
3.09036
3.08444
3.07633
3.06687
3.05563
3.04368
3.0302
3.01634
3.00097
2.98531
2.96814
2.95072
2.93192
2.91288
2.8927
2.87215
2.8508
2.82886
2.8067
2.78386
2.76123
2.7376
2.71452
2.69023
2.66674
2.64202
2.61825
2.59335
2.56937
2.54449
2.52039
2.49568
2.47158
2.44719
2.42323
2.39936
2.37572
2.35255
2.32939
2.30708
2.28456
2.26331
2.24168
2.22176
2.20145
2.18327
2.16512
2.14914
2.13404
2.12056
2.11329
3.94457
3.78399
3.63054
3.49037
3.3779
3.29175
3.26615
3.25817
3.26763
3.31483
3.38803
3.42692
3.41634
3.39736
3.35364
3.26056
3.15244
3.05192
2.96543
2.89066
2.82908
2.77693
2.73681
2.70559
2.68619
2.67381
2.67574
2.68018
2.69121
2.71266
2.7377
2.77493
2.82117
2.86756
2.91098
2.94814
2.97958
3.00528
3.02599
3.04368
3.05789
3.07048
3.08048
3.08865
3.09465
3.09768
3.0994
3.10013
3.09998
3.0974
3.09265
3.08558
3.07726
3.06687
3.05568
3.04269
3.02933
3.01432
2.99909
2.98227
2.96523
2.94673
2.92797
2.90799
2.88763
2.86641
2.84483
2.82291
2.8004
2.7779
2.75451
2.73145
2.70729
2.68376
2.65909
2.63522
2.61035
2.58627
2.56146
2.5373
2.51273
2.48863
2.46445
2.44053
2.41692
2.39327
2.37039
2.34717
2.32521
2.30269
2.28188
2.26046
2.2412
2.22142
2.20439
2.18703
2.17242
2.15893
2.14756
2.14371
3.97527
3.83054
3.69436
3.58119
3.49294
3.45875
3.45061
3.46057
3.5053
3.58308
3.63019
3.62181
3.60529
3.56533
3.47782
3.37049
3.26787
3.1746
3.09351
3.01965
2.95616
2.89769
2.84937
2.8064
2.77392
2.74757
2.73202
2.72225
2.72661
2.73227
2.74487
2.76505
2.79359
2.83402
2.87713
2.91834
2.95594
2.98676
3.0131
3.03324
3.05046
3.0637
3.07503
3.08381
3.09066
3.09508
3.09682
3.09796
3.09839
3.09687
3.09293
3.08662
3.07893
3.06912
3.05834
3.04571
3.03253
3.01765
3.00247
2.98567
2.96869
2.9502
2.93149
2.91148
2.89111
2.87003
2.84847
2.82674
2.8042
2.78191
2.75856
2.73572
2.71178
2.6884
2.66408
2.64025
2.61578
2.59167
2.56725
2.54303
2.51883
2.49469
2.47084
2.44698
2.42365
2.40027
2.37767
2.35492
2.33337
2.31148
2.29137
2.27078
2.25263
2.23418
2.21863
2.2028
2.19051
2.17994
2.17204
2.17225
4.01742
3.88768
3.77702
3.69205
3.65659
3.64898
3.6585
3.70568
3.78053
3.82812
3.82011
3.80362
3.76264
3.67404
3.57055
3.47018
3.37872
3.29437
3.21769
3.14509
3.07898
3.01625
2.96067
2.90945
2.866
2.82842
2.79933
2.77721
2.76471
2.76025
2.76499
2.77215
2.78561
2.80755
2.83981
2.87889
2.9174
2.95449
2.98579
3.0129
3.03405
3.05131
3.06493
3.07531
3.08342
3.08924
3.09215
3.09337
3.09401
3.09334
3.09102
3.08584
3.07926
3.07042
3.06059
3.04865
3.03607
3.02162
3.00676
2.99028
2.97345
2.9552
2.93644
2.91657
2.89626
2.87539
2.85395
2.83236
2.81
2.78777
2.76463
2.74182
2.71806
2.69477
2.6706
2.64695
2.62265
2.59877
2.57456
2.55061
2.52667
2.50278
2.47926
2.45558
2.43266
2.4094
2.38733
2.36476
2.34388
2.32247
2.30319
2.28368
2.26677
2.25009
2.23581
2.22285
2.21339
2.20682
2.20418
2.20611
4.07306
3.96664
3.88708
3.85652
3.84924
3.85944
3.91484
3.9868
4.03054
4.02129
4.00198
3.95587
3.85899
3.75703
3.66023
3.57122
3.48905
3.41122
3.33647
3.26446
3.19599
3.13017
3.06932
3.01208
2.96058
2.91474
2.87495
2.84236
2.81663
2.79964
2.78891
2.79039
2.79465
2.80232
2.81663
2.84289
2.87578
2.9122
2.94823
2.98089
3.00843
3.03138
3.04881
3.06274
3.07269
3.08006
3.08493
3.0863
3.08752
3.0876
3.08656
3.0825
3.07677
3.06874
3.05963
3.04829
3.03625
3.02209
3.0076
2.99124
2.97471
2.95652
2.9381
2.91841
2.89861
2.87789
2.85696
2.83547
2.8135
2.79137
2.76851
2.74577
2.72228
2.69892
2.67517
2.65125
2.62753
2.60325
2.5797
2.55539
2.53206
2.50805
2.48502
2.46159
2.43906
2.41646
2.39468
2.3733
2.35261
2.333
2.31412
2.29713
2.28104
2.267
2.25446
2.24595
2.23998
2.23943
2.23919
2.24515
4.15137
4.07501
4.05562
4.04954
4.0634
4.13622
4.20837
4.24246
4.22968
4.20405
4.14459
4.04159
3.93727
3.8414
3.75563
3.67557
3.5994
3.52464
3.45098
3.37862
3.30823
3.24009
3.17505
3.11373
3.056
3.0042
2.95584
2.91556
2.87923
2.85155
2.82918
2.81608
2.80905
2.81231
2.81549
2.82404
2.83988
2.86891
2.90201
2.93629
2.96996
2.99827
3.02305
3.04131
3.05618
3.06594
3.07296
3.07619
3.07754
3.07774
3.07756
3.07498
3.07058
3.0635
3.05564
3.04514
3.03416
3.02065
3.00701
2.99105
2.97513
2.95713
2.93916
2.91983
2.90023
2.87999
2.85901
2.83806
2.81593
2.79431
2.77136
2.74904
2.72558
2.7026
2.67889
2.65542
2.63168
2.60796
2.58441
2.56063
2.53751
2.51387
2.49137
2.46812
2.44638
2.42396
2.40317
2.38219
2.36285
2.34408
2.3272
2.31171
2.29772
2.28612
2.27777
2.2742
2.27379
2.27448
2.27983
2.29705
4.27046
4.24557
4.24426
4.26875
4.36554
4.44256
4.46864
4.45401
4.42002
4.34264
4.23019
4.11846
4.02069
3.93429
3.85634
3.78183
3.70886
3.63538
3.56227
3.48893
3.41748
3.34702
3.27935
3.21441
3.15243
3.09536
3.04097
2.99374
2.94923
2.91287
2.88063
2.85609
2.83726
2.82817
2.82376
2.82619
2.82962
2.8395
2.85834
2.88904
2.92093
2.95437
2.98385
3.01004
3.02971
3.04515
3.05509
3.06168
3.06454
3.06515
3.06588
3.06454
3.06181
3.0559
3.04922
3.03974
3.02956
3.01687
3.00367
2.98844
2.97268
2.95542
2.93769
2.91904
2.89975
2.88002
2.85943
2.83875
2.81711
2.79554
2.77308
2.75079
2.72773
2.70498
2.68148
2.65851
2.63472
2.61175
2.58788
2.5651
2.54153
2.51904
2.49622
2.47421
2.45252
2.43135
2.41125
2.3916
2.37377
2.35692
2.34235
2.32872
2.31817
2.3104
2.30892
2.30868
2.31064
2.31564
2.32961
2.36812
4.4566
4.44722
4.47754
4.59651
4.69228
4.71326
4.69516
4.65041
4.55232
4.42613
4.30687
4.20307
4.11395
4.03525
3.96128
3.88952
3.81694
3.74415
3.66989
3.59632
3.52285
3.45095
3.38082
3.31302
3.24817
3.18655
3.12869
3.0751
3.02576
2.98149
2.94194
2.90809
2.87977
2.8579
2.84231
2.8365
2.83018
2.83371
2.83891
2.85023
2.87284
2.90155
2.93445
2.9646
2.99216
3.01323
3.03014
3.04067
3.04753
3.04948
3.0506
3.05025
3.0493
3.04454
3.03905
3.03052
3.02164
3.00987
2.99789
2.98317
2.96837
2.95141
2.93452
2.916
2.89749
2.87779
2.85803
2.83728
2.81653
2.7948
2.77324
2.75074
2.72859
2.7056
2.68303
2.65989
2.63699
2.61402
2.59098
2.5684
2.54556
2.5236
2.50137
2.48033
2.45922
2.43957
2.42028
2.40286
2.38667
2.37262
2.35977
2.34991
2.34388
2.34293
2.34338
2.34582
2.35558
2.37555
2.39684
2.44902
4.65236
4.73509
4.85785
4.95753
4.97357
4.9527
4.89744
4.77807
4.6361
4.50586
4.39445
4.30035
4.2172
4.14187
4.06889
3.99692
3.92368
3.85002
3.77478
3.70049
3.62618
3.55301
3.48125
3.41159
3.34417
3.27983
3.21823
3.16006
3.10616
3.05546
3.01031
2.96816
2.93234
2.90021
2.87508
2.85511
2.84467
2.83538
2.83174
2.83484
2.84225
2.85591
2.88214
2.91087
2.94057
2.96824
2.99135
3.00917
3.02109
3.02843
3.03074
3.03122
3.03113
3.02924
3.02472
3.01793
3.00979
2.99976
2.98832
2.97522
2.96067
2.94506
2.92836
2.91088
2.89266
2.87372
2.85439
2.83429
2.814
2.79285
2.77179
2.74975
2.72821
2.70554
2.68373
2.66074
2.63878
2.61584
2.59386
2.57133
2.54964
2.52782
2.5069
2.48626
2.46675
2.44808
2.43094
2.41568
2.40226
2.39041
2.38148
2.37793
2.37738
2.37815
2.3837
2.39527
2.41935
2.4517
2.47946
2.53465
4.97447
5.13875
5.25283
5.25992
5.23369
5.16529
5.01787
4.85912
4.71761
4.59755
4.49571
4.40774
4.32772
4.25266
4.17887
4.10507
4.03034
3.95504
3.87954
3.8035
3.72805
3.65365
3.58044
3.50919
3.43947
3.37263
3.30801
3.24686
3.18883
3.13381
3.08342
3.03536
2.99296
2.95302
2.91948
2.88953
2.86661
2.8507
2.83869
2.82799
2.82978
2.8328
2.84103
2.85698
2.88244
2.91095
2.93827
2.96278
2.98199
2.99589
3.00388
3.00718
3.00761
3.00747
3.00556
3.0004
2.99323
2.98447
2.97402
2.96224
2.94881
2.93452
2.91866
2.90249
2.88478
2.8672
2.84795
2.82928
2.80879
2.7892
2.76782
2.74729
2.72549
2.70415
2.6823
2.66044
2.63869
2.61673
2.59525
2.57363
2.55275
2.53197
2.51224
2.49297
2.47522
2.45865
2.44446
2.43194
2.42157
2.41339
2.41237
2.41202
2.41454
2.42081
2.43929
2.46544
2.49857
2.53705
2.56685
2.61647
5.43142
5.58445
5.58508
5.5515
5.46421
5.27814
5.09928
4.94396
4.81373
4.70466
4.61014
4.52494
4.4451
4.36729
4.29029
4.2132
4.1361
4.0589
3.98201
3.9049
3.82853
3.75302
3.6785
3.60576
3.5343
3.4654
3.39857
3.33444
3.27325
3.2148
3.15949
3.10735
3.05835
3.01328
2.97138
2.93458
2.90138
2.87431
2.85381
2.83715
2.82412
2.81599
2.81792
2.82256
2.83189
2.85094
2.87548
2.90202
2.92706
2.94754
2.96314
2.9725
2.97681
2.97721
2.97721
2.97512
2.97064
2.96312
2.95441
2.94352
2.93209
2.91868
2.90479
2.88918
2.87312
2.85585
2.83809
2.81968
2.80054
2.7813
2.76104
2.74113
2.72012
2.69974
2.67843
2.65784
2.6366
2.61611
2.5953
2.57524
2.55538
2.53628
2.51806
2.50098
2.48541
2.47249
2.46082
2.45168
2.44636
2.44528
2.44617
2.44996
2.4616
2.48364
2.51423
2.54917
2.58648
2.62419
2.64993
2.68894
5.94386
5.93067
5.8875
5.7659
5.54637
5.34061
5.17238
5.03471
4.92018
4.82028
4.72976
4.64465
4.56195
4.48152
4.40095
4.32179
4.24199
4.16331
4.08452
4.00631
3.92874
3.8519
3.77626
3.70183
3.62918
3.55851
3.48986
3.42348
3.3594
3.29747
3.23859
3.18168
3.12842
3.07719
3.02994
2.9853
2.94523
2.90871
2.87769
2.8521
2.83245
2.81412
2.80051
2.79729
2.79874
2.80368
2.81348
2.83484
2.85825
2.88253
2.90435
2.92148
2.93276
2.93935
2.94001
2.94023
2.93902
2.93515
2.92769
2.91822
2.90795
2.89597
2.88377
2.86939
2.85525
2.83873
2.82291
2.80488
2.78763
2.76868
2.75028
2.73075
2.71153
2.6916
2.67189
2.65191
2.63207
2.61246
2.59308
2.57432
2.5562
2.53903
2.52326
2.50894
2.49771
2.48778
2.47962
2.47762
2.47734
2.47886
2.48614
2.50257
2.52948
2.56238
2.60018
2.63818
2.6731
2.70417
2.72178
2.74916
6.3145
6.26993
6.08981
5.81555
5.58391
5.39956
5.25449
5.13481
5.03089
4.93611
4.84598
4.75948
4.67377
4.59016
4.50657
4.42487
4.3434
4.26352
4.18404
4.10552
4.02704
3.94935
3.87237
3.79686
3.72255
3.65021
3.57941
3.51066
3.44395
3.37909
3.31679
3.25609
3.19826
3.14225
3.08938
3.03902
2.99195
2.94867
2.90924
2.87436
2.84432
2.82049
2.79767
2.78
2.76769
2.76765
2.76952
2.77466
2.78634
2.80715
2.83037
2.85249
2.87133
2.88492
2.89321
2.89544
2.89576
2.89556
2.89245
2.88588
2.87662
2.86709
2.85537
2.84346
2.82971
2.81558
2.80021
2.78428
2.76758
2.75047
2.73284
2.71506
2.69688
2.67866
2.66023
2.64191
2.62369
2.60578
2.58841
2.57164
2.55601
2.54156
2.52915
2.5195
2.5115
2.50612
2.50533
2.5057
2.51074
2.52156
2.54517
2.5749
2.61094
2.64969
2.68761
2.72195
2.74908
2.77013
2.77922
2.79741
6.48069
6.34308
6.02963
5.77757
5.58616
5.44174
5.32627
5.22512
5.13119
5.04065
4.9515
4.864
4.77709
4.69129
4.60607
4.52238
4.43967
4.35865
4.27847
4.19932
4.12038
4.04228
3.96457
3.88828
3.81245
3.73858
3.6656
3.5947
3.52518
3.45752
3.39164
3.32739
3.2653
3.20501
3.14723
3.09174
3.03915
2.98942
2.94267
2.89994
2.86077
2.82675
2.79825
2.77207
2.7491
2.73406
2.72627
2.72642
2.72837
2.73421
2.74939
2.76959
2.79183
2.81166
2.82744
2.83742
2.84236
2.84302