/*--------------------------------*- C++ -*----------------------------------*\
  =========                 |
  \\      /  F ield         | OpenFOAM: The Open Source CFD Toolbox
   \\    /   O peration     | Website:  https://openfoam.org
    \\  /    A nd           | Version:  13
     \\/     M anipulation  |
\*---------------------------------------------------------------------------*/
FoamFile
{
    format      ascii;
    class       volVectorField;
    location    "8.5";
    object      U;
}
// * * * * * * * * * * * * * * * * * * * * * * * * * * * * * * * * * * * * * //

dimensions      [0 1 -1 0 0 0 0];

internalField   nonuniform List<vector> 
5250
(
(2.99999 -1.21495e-08 0)
(2.99998 1.43732e-07 0)
(2.99995 1.59704e-08 0)
(2.99988 1.38718e-06 0)
(2.99971 3.32365e-08 0)
(2.9993 9.69352e-06 0)
(2.99824 -3.03316e-06 0)
(2.9957 6.06279e-05 0)
(2.98925 2.93545e-07 0)
(2.97313 0.000276233 0)
(2.93061 0.000297473 0)
(2.81195 0.00128244 0)
(2.46401 0.0030766 0)
(1.50495 0.00938865 0)
(0.667069 0.022299 0)
(0.543503 0.0229639 0)
(0.567212 0.0237493 0)
(0.558509 0.025376 0)
(0.504561 0.0271775 0)
(0.418341 0.0292354 0)
(0.336922 0.0317389 0)
(0.268187 0.0346419 0)
(0.198502 0.0377249 0)
(0.119333 0.0413572 0)
(0.0523554 0.0465751 0)
(2.99999 7.18562e-09 0)
(2.99998 3.14642e-07 0)
(2.99995 3.93923e-07 0)
(2.99989 3.10269e-06 0)
(2.99972 3.15451e-06 0)
(2.99929 1.98048e-05 0)
(2.99828 1.99476e-05 0)
(2.9957 0.000116593 0)
(2.98943 0.000147989 0)
(2.97338 0.000624134 0)
(2.93143 0.00121243 0)
(2.81434 0.00366172 0)
(2.47054 0.00978974 0)
(1.52037 0.0289 0)
(0.67652 0.0676363 0)
(0.541936 0.0663318 0)
(0.566382 0.0658229 0)
(0.558317 0.0683937 0)
(0.504405 0.0713978 0)
(0.41835 0.0751184 0)
(0.336899 0.0794901 0)
(0.267568 0.0841823 0)
(0.196874 0.0885903 0)
(0.116385 0.0929319 0)
(0.0489531 0.097326 0)
(2.99999 5.5868e-08 0)
(2.99998 3.93413e-07 0)
(2.99996 1.21339e-06 0)
(2.99989 3.85104e-06 0)
(2.99972 9.29706e-06 0)
(2.99931 2.47921e-05 0)
(2.99832 5.9792e-05 0)
(2.9958 0.000148562 0)
(2.98967 0.000363659 0)
(2.97402 0.000904673 0)
(2.93314 0.00228536 0)
(2.81911 0.00603852 0)
(2.48506 0.0168497 0)
(1.55407 0.0492353 0)
(0.698535 0.116837 0)
(0.540136 0.112243 0)
(0.566932 0.110278 0)
(0.560942 0.115022 0)
(0.507685 0.120717 0)
(0.422466 0.128017 0)
(0.341334 0.136134 0)
(0.271531 0.144668 0)
(0.19984 0.15287 0)
(0.117898 0.160441 0)
(0.0485748 0.166222 0)
(3 8.37969e-08 0)
(2.99998 5.1332e-07 0)
(2.99996 1.85337e-06 0)
(2.99989 4.97575e-06 0)
(2.99973 1.37348e-05 0)
(2.99933 3.3535e-05 0)
(2.99838 8.4557e-05 0)
(2.99595 0.000209338 0)
(2.99006 0.000508513 0)
(2.97498 0.00127936 0)
(2.93571 0.00321132 0)
(2.82647 0.00850042 0)
(2.50676 0.0236634 0)
(1.60678 0.0690164 0)
(0.732395 0.166949 0)
(0.537046 0.15746 0)
(0.568752 0.153583 0)
(0.566657 0.160805 0)
(0.514635 0.169461 0)
(0.430873 0.180686 0)
(0.350308 0.192891 0)
(0.280251 0.205784 0)
(0.207474 0.218511 0)
(0.123307 0.230087 0)
(0.0504349 0.237758 0)
(3 1.0558e-07 0)
(2.99998 6.57883e-07 0)
(2.99996 2.28286e-06 0)
(2.9999 6.41472e-06 0)
(2.99975 1.69375e-05 0)
(2.99937 4.24615e-05 0)
(2.99846 0.000107049 0)
(2.99616 0.000263036 0)
(2.99056 0.000657367 0)
(2.97627 0.00162883 0)
(2.93915 0.00413888 0)
(2.83622 0.0108875 0)
(2.53567 0.0303672 0)
(1.67864 0.0881844 0)
(0.778058 0.218718 0)
(0.532212 0.202922 0)
(0.571886 0.196365 0)
(0.575528 0.205874 0)
(0.525177 0.217354 0)
(0.443382 0.232491 0)
(0.36363 0.249033 0)
(0.293441 0.266772 0)
(0.219467 0.284774 0)
(0.13215 0.301366 0)
(0.0541812 0.311863 0)
(3 1.27664e-07 0)
(2.99999 7.94487e-07 0)
(2.99996 2.72686e-06 0)
(2.9999 7.77945e-06 0)
(2.99976 2.02379e-05 0)
(2.99941 5.09519e-05 0)
(2.99857 0.000130069 0)
(2.99641 0.000314041 0)
(2.99119 0.000806024 0)
(2.97788 0.00196286 0)
(2.94343 0.00504592 0)
(2.84834 0.013175 0)
(2.57157 0.0367742 0)
(1.77111 0.106459 0)
(0.837091 0.272043 0)
(0.52696 0.248637 0)
(0.577379 0.238801 0)
(0.588488 0.250553 0)
(0.540124 0.264834 0)
(0.460841 0.284055 0)
(0.382235 0.305492 0)
(0.312184 0.329081 0)
(0.236974 0.353836 0)
(0.145632 0.377616 0)
(0.0604293 0.393312 0)
(3 1.467e-07 0)
(2.99999 9.08019e-07 0)
(2.99997 3.16957e-06 0)
(2.99991 8.88619e-06 0)
(2.99978 2.35516e-05 0)
(2.99946 5.89947e-05 0)
(2.99868 0.000149955 0)
(2.99672 0.000367249 0)
(2.99194 0.000925895 0)
(2.9798 0.00228943 0)
(2.94851 0.00581743 0)
(2.86264 0.0152348 0)
(2.61404 0.0422901 0)
(1.8849 0.122469 0)
(0.911307 0.323836 0)
(0.524701 0.2941 0)
(0.58793 0.281101 0)
(0.607496 0.294751 0)
(0.560992 0.311672 0)
(0.484658 0.335255 0)
(0.407608 0.362341 0)
(0.338151 0.39307 0)
(0.262121 0.426713 0)
(0.166234 0.461237 0)
(0.0709808 0.4871 0)
(3 1.6448e-07 0)
(2.99999 9.59403e-07 0)
(2.99997 3.5713e-06 0)
(2.99992 9.37484e-06 0)
(2.99981 2.66162e-05 0)
(2.99952 6.34725e-05 0)
(2.99882 0.000166743 0)
(2.99706 0.000400657 0)
(2.9928 0.00101618 0)
(2.98196 0.00250441 0)
(2.95423 0.00636607 0)
(2.87878 0.0166129 0)
(2.66166 0.0459736 0)
(2.01908 0.133335 0)
(1.00396 0.367412 0)
(0.533567 0.341316 0)
(0.607522 0.326885 0)
(0.634968 0.339963 0)
(0.590009 0.358255 0)
(0.517017 0.386075 0)
(0.441937 0.419528 0)
(0.373767 0.458898 0)
(0.298159 0.504038 0)
(0.198654 0.554735 0)
(0.0895529 0.60138 0)
(3 1.73009e-07 0)
(2.99999 9.28042e-07 0)
(2.99997 3.63671e-06 0)
(2.99993 9.09429e-06 0)
(2.99983 2.69239e-05 0)
(2.99958 6.15677e-05 0)
(2.99896 0.000170334 0)
(2.99743 0.000387614 0)
(2.99369 0.00104337 0)
(2.98427 0.00245356 0)
(2.96027 0.00644001 0)
(2.89579 0.0164472 0)
(2.71207 0.0456073 0)
(2.16866 0.131914 0)
(1.12374 0.380376 0)
(0.571765 0.384551 0)
(0.642811 0.377935 0)
(0.673455 0.386959 0)
(0.630012 0.406071 0)
(0.560777 0.436933 0)
(0.488115 0.477374 0)
(0.422156 0.525765 0)
(0.349866 0.584764 0)
(0.252114 0.660837 0)
(0.124542 0.750659 0)
(3 1.43781e-07 0)
(2.99999 9.05725e-07 0)
(2.99998 3.0561e-06 0)
(2.99994 8.87523e-06 0)
(2.99985 2.26805e-05 0)
(2.99963 5.84406e-05 0)
(2.99909 0.000145145 0)
(2.99778 0.000356676 0)
(2.99452 0.000901619 0)
(2.98646 0.00218698 0)
(2.9659 0.00557189 0)
(2.91153 0.0142015 0)
(2.75858 0.0385574 0)
(2.31062 0.109881 0)
(1.268 0.327119 0)
(0.636854 0.411642 0)
(0.686375 0.433384 0)
(0.715893 0.433639 0)
(0.677918 0.454999 0)
(0.614854 0.487636 0)
(0.546629 0.53465 0)
(0.485154 0.591468 0)
(0.424316 0.6688 0)
(0.343722 0.786901 0)
(0.192337 0.993547 0)
(3 1.14598e-07 0)
(2.99999 8.34504e-07 0)
(2.99998 2.55236e-06 0)
(2.99995 8.12498e-06 0)
(2.99987 1.91512e-05 0)
(2.99968 5.26558e-05 0)
(2.99921 0.000121961 0)
(2.99806 0.000318421 0)
(2.99522 0.000751062 0)
(2.98815 0.00190602 0)
(2.9703 0.00463469 0)
(2.92321 0.0119035 0)
(2.79166 0.0313521 0)
(2.406 0.0876587 0)
(1.40962 0.259895 0)
(0.701409 0.453096 0)
(0.706201 0.486812 0)
(0.734701 0.483922 0)
(0.718649 0.504173 0)
(0.669484 0.537026 0)
(0.612554 0.587005 0)
(0.564023 0.651748 0)
(0.532744 0.744589 0)
(0.530523 0.889175 0)
(0.565151 1.13068 0)
(3 1.22e-07 0)
(2.99999 6.91464e-07 0)
(2.99998 2.62286e-06 0)
(2.99995 6.727e-06 0)
(2.99989 1.93145e-05 0)
(2.99972 4.5042e-05 0)
(2.99932 0.000119827 0)
(2.99831 0.000281045 0)
(2.99584 0.000719577 0)
(2.98969 0.001731 0)
(2.97424 0.00436419 0)
(2.93369 0.0109483 0)
(2.82123 0.0289321 0)
(2.49301 0.0804957 0)
(1.59021 0.235679 0)
(0.803438 0.50575 0)
(0.71447 0.526486 0)
(0.74439 0.528269 0)
(0.748194 0.546292 0)
(0.717689 0.58089 0)
(0.679331 0.631425 0)
(0.650942 0.70116 0)
(0.650979 0.799056 0)
(0.703267 0.936103 0)
(0.829048 1.11387 0)
(3 1.14591e-07 0)
(2.99999 6.86832e-07 0)
(2.99998 2.45003e-06 0)
(2.99996 6.71359e-06 0)
(2.9999 1.81321e-05 0)
(2.99976 4.44957e-05 0)
(2.99941 0.000114197 0)
(2.99856 0.000273702 0)
(2.99642 0.000696317 0)
(2.99119 0.00167573 0)
(2.97796 0.00424861 0)
(2.94371 0.0105888 0)
(2.84932 0.0279449 0)
(2.57595 0.0773404 0)
(1.79184 0.224652 0)
(0.93422 0.54613 0)
(0.724849 0.554823 0)
(0.755384 0.559199 0)
(0.774968 0.576871 0)
(0.762505 0.615056 0)
(0.743017 0.667018 0)
(0.736723 0.736319 0)
(0.759601 0.827253 0)
(0.831703 0.938365 0)
(0.970977 1.04744 0)
(3 1.00775e-07 0)
(3 7.00135e-07 0)
(2.99999 2.22276e-06 0)
(2.99997 6.85437e-06 0)
(2.99992 1.66711e-05 0)
(2.9998 4.51393e-05 0)
(2.99951 0.000106589 0)
(2.99879 0.00027653 0)
(2.99701 0.00066081 0)
(2.99265 0.00167837 0)
(2.98166 0.0041033 0)
(2.95344 0.010469 0)
(2.87682 0.0271856 0)
(2.65638 0.0752318 0)
(2.00965 0.217822 0)
(1.09159 0.5783 0)
(0.750254 0.587256 0)
(0.776549 0.590743 0)
(0.806257 0.602338 0)
(0.808863 0.640528 0)
(0.803644 0.69309 0)
(0.813135 0.757827 0)
(0.84993 0.83479 0)
(0.925999 0.91989 0)
(1.0566 0.990848 0)
(3 9.91344e-08 0)
(3 5.99145e-07 0)
(2.99999 2.16232e-06 0)
(2.99997 5.87178e-06 0)
(2.99993 1.60622e-05 0)
(2.99984 3.96096e-05 0)
(2.9996 0.000100201 0)
(2.99902 0.000249271 0)
(2.99759 0.000608922 0)
(2.99406 0.0015435 0)
(2.98529 0.00375937 0)
(2.96294 0.00961409 0)
(2.90342 0.0247133 0)
(2.73527 0.0677892 0)
(2.24112 0.195273 0)
(1.29439 0.556358 0)
(0.821433 0.616838 0)
(0.819742 0.627572 0)
(0.84719 0.632039 0)
(0.861048 0.663247 0)
(0.863777 0.711527 0)
(0.88088 0.769201 0)
(0.923792 0.832884 0)
(0.998351 0.898071 0)
(1.11563 0.949376 0)
(3 8.26538e-08 0)
(3 5.10746e-07 0)
(2.99999 1.80817e-06 0)
(2.99998 4.97761e-06 0)
(2.99995 1.3427e-05 0)
(2.99987 3.31214e-05 0)
(2.99968 8.38519e-05 0)
(2.99922 0.000206086 0)
(2.99809 0.000506674 0)
(2.99528 0.00126606 0)
(2.98838 0.00308352 0)
(2.97094 0.00778256 0)
(2.92527 0.0197185 0)
(2.799 0.0528108 0)
(2.43259 0.149286 0)
(1.52691 0.444974 0)
(0.921448 0.635973 0)
(0.87121 0.662795 0)
(0.890786 0.670859 0)
(0.913238 0.688895 0)
(0.922248 0.72749 0)
(0.942359 0.776206 0)
(0.986128 0.828462 0)
(1.05666 0.879183 0)
(1.16019 0.918332 0)
(3 6.88598e-08 0)
(3 4.30317e-07 0)
(2.99999 1.4757e-06 0)
(2.99998 4.19653e-06 0)
(2.99996 1.09306e-05 0)
(2.9999 2.75144e-05 0)
(2.99975 6.91445e-05 0)
(2.99937 0.000166855 0)
(2.99847 0.000421995 0)
(2.99621 0.00100303 0)
(2.99072 0.00254523 0)
(2.9768 0.00613163 0)
(2.94082 0.0156908 0)
(2.84208 0.0406195 0)
(2.55734 0.1125 0)
(1.76998 0.332442 0)
(1.0419 0.66651 0)
(0.905967 0.696174 0)
(0.921203 0.70846 0)
(0.951424 0.715161 0)
(0.972694 0.742994 0)
(0.996821 0.782466 0)
(1.03967 0.824848 0)
(1.10513 0.864543 0)
(1.19613 0.8947 0)
(3 5.8325e-08 0)
(3 3.67737e-07 0)
(2.99999 1.2627e-06 0)
(2.99999 3.59018e-06 0)
(2.99997 9.34296e-06 0)
(2.99992 2.37665e-05 0)
(2.9998 5.88788e-05 0)
(2.99951 0.000145871 0)
(2.99879 0.000360486 0)
(2.99705 0.00088247 0)
(2.99266 0.00219094 0)
(2.98187 0.00540298 0)
(2.95395 0.0136017 0)
(2.87865 0.0353308 0)
(2.6635 0.0969279 0)
(2.03701 0.281786 0)
(1.21357 0.693502 0)
(0.943141 0.727967 0)
(0.948394 0.738087 0)
(0.9816 0.738876 0)
(1.01511 0.755999 0)
(1.0444 0.787485 0)
(1.08609 0.822131 0)
(1.14627 0.853532 0)
(1.22649 0.876771 0)
(3 4.65003e-08 0)
(3 3.11914e-07 0)
(3 1.03409e-06 0)
(2.99999 3.04291e-06 0)
(2.99997 7.69453e-06 0)
(2.99994 2.0212e-05 0)
(2.99985 4.82764e-05 0)
(2.99962 0.000125059 0)
(2.99909 0.000294184 0)
(2.99773 0.000761151 0)
(2.99449 0.00179903 0)
(2.9863 0.00462686 0)
(2.96576 0.0112949 0)
(2.91132 0.0295232 0)
(2.75946 0.0795131 0)
(2.31546 0.228884 0)
(1.45432 0.636333 0)
(1.02772 0.741921 0)
(0.99499 0.758871 0)
(1.01685 0.762525 0)
(1.05538 0.769943 0)
(1.0893 0.79299 0)
(1.12876 0.82062 0)
(1.18293 0.845432 0)
(1.25354 0.863263 0)
(3 4.00845e-08 0)
(3 2.39567e-07 0)
(3 8.54254e-07 0)
(2.99999 2.33417e-06 0)
(2.99998 6.32082e-06 0)
(2.99995 1.53528e-05 0)
(2.99989 3.97517e-05 0)
(2.99972 9.36855e-05 0)
(2.99932 0.000241187 0)
(2.9983 0.000566477 0)
(2.99588 0.00144932 0)
(2.98978 0.00345772 0)
(2.9747 0.00875514 0)
(2.9354 0.0219086 0)
(2.828 0.0581251 0)
(2.51966 0.16245 0)
(1.72703 0.481133 0)
(1.14013 0.748378 0)
(1.04636 0.778433 0)
(1.05526 0.789678 0)
(1.0921 0.789457 0)
(1.13021 0.80236 0)
(1.16808 0.822044 0)
(1.21658 0.840613 0)
(1.27868 0.853701 0)
(3 3.11309e-08 0)
(3 1.88436e-07 0)
(3 6.64961e-07 0)
(2.99999 1.83577e-06 0)
(2.99999 4.90951e-06 0)
(2.99997 1.20861e-05 0)
(2.99991 3.08479e-05 0)
(2.99979 7.34895e-05 0)
(2.99948 0.00018715 0)
(2.99874 0.000441692 0)
(2.9969 0.00112483 0)
(2.99239 0.00267733 0)
(2.98112 0.00676808 0)
(2.95228 0.0166949 0)
(2.87443 0.0435681 0)
(2.65361 0.118699 0)
(2.02287 0.349846 0)
(1.30032 0.76086 0)
(1.08932 0.806162 0)
(1.08617 0.817269 0)
(1.11945 0.813066 0)
(1.16362 0.813438 0)
(1.20263 0.825027 0)
(1.24714 0.838153 0)
(1.3022 0.847217 0)
(3 2.31639e-08 0)
(3 1.51312e-07 0)
(3 5.0451e-07 0)
(3 1.47384e-06 0)
(2.99999 3.74703e-06 0)
(2.99997 9.6891e-06 0)
(2.99994 2.36272e-05 0)
(2.99985 5.90906e-05 0)
(2.99962 0.000143958 0)
(2.99908 0.000355597 0)
(2.99774 0.000873974 0)
(2.99449 0.0021448 0)
(2.98638 0.005331 0)
(2.96597 0.0132209 0)
(2.91208 0.0340926 0)
(2.7627 0.0915887 0)
(2.32563 0.264125 0)
(1.54022 0.696817 0)
(1.16961 0.817098 0)
(1.12991 0.834127 0)
(1.14848 0.835174 0)
(1.19179 0.827287 0)
(1.23454 0.829789 0)
(1.27634 0.837374 0)
(1.32514 0.842828 0)
(3 1.75092e-08 0)
(3 1.15314e-07 0)
(3 3.81603e-07 0)
(3 1.12299e-06 0)
(2.99999 2.82483e-06 0)
(2.99998 7.36745e-06 0)
(2.99995 1.77384e-05 0)
(2.99989 4.47729e-05 0)
(2.99973 0.000107948 0)
(2.99935 0.000267519 0)
(2.99839 0.00065217 0)
(2.9961 0.00160027 0)
(2.99035 0.00394715 0)
(2.97621 0.00972259 0)
(2.93951 0.0246389 0)
(2.84032 0.0646249 0)
(2.55636 0.180848 0)
(1.83518 0.525469 0)
(1.29027 0.810639 0)
(1.18117 0.843859 0)
(1.18273 0.855018 0)
(1.21777 0.84637 0)
(1.26234 0.838992 0)
(1.30366 0.839573 0)
(1.34776 0.841104 0)
(3 1.29104e-08 0)
(3 8.58129e-08 0)
(3 2.84906e-07 0)
(3 8.34786e-07 0)
(2.99999 2.10758e-06 0)
(2.99999 5.49174e-06 0)
(2.99997 1.31268e-05 0)
(2.99992 3.3515e-05 0)
(2.99981 7.92213e-05 0)
(2.99954 0.000201102 0)
(2.99885 0.000475917 0)
(2.99723 0.00120167 0)
(2.99314 0.00287968 0)
(2.98318 0.00722746 0)
(2.95763 0.0178419 0)
(2.88969 0.0462449 0)
(2.69883 0.125233 0)
(2.15023 0.367358 0)
(1.46311 0.805204 0)
(1.23195 0.865597 0)
(1.21634 0.874097 0)
(1.23886 0.866715 0)
(1.28304 0.852427 0)
(1.32709 0.84606 0)
(1.36894 0.842933 0)
(3 9.72009e-09 0)
(3 6.12047e-08 0)
(3 2.12724e-07 0)
(3 5.94389e-07 0)
(3 1.56949e-06 0)
(2.99999 3.91964e-06 0)
(2.99998 9.72672e-06 0)
(2.99995 2.40727e-05 0)
(2.99987 5.81571e-05 0)
(2.99968 0.000145754 0)
(2.99922 0.000346071 0)
(2.9981 0.000877075 0)
(2.99537 0.00207897 0)
(2.98866 0.0052736 0)
(2.97193 0.0127839 0)
(2.92862 0.0329615 0)
(2.81155 0.0870927 0)
(2.47216 0.249913 0)
(1.74352 0.66987 0)
(1.33338 0.852945 0)
(1.2671 0.876709 0)
(1.2712 0.880704 0)
(1.30664 0.867256 0)
(1.35027 0.854929 0)
(1.38921 0.846678 0)
(3 6.98263e-09 0)
(3 4.306e-08 0)
(3 1.50532e-07 0)
(3 4.17999e-07 0)
(3 1.10762e-06 0)
(2.99999 2.73971e-06 0)
(2.99998 6.87667e-06 0)
(2.99996 1.66348e-05 0)
(2.99991 4.11244e-05 0)
(2.99978 9.93289e-05 0)
(2.99946 0.000243942 0)
(2.99867 0.000591195 0)
(2.99681 0.0014457 0)
(2.9921 0.00352587 0)
(2.98065 0.00865729 0)
(2.95119 0.0215388 0)
(2.8727 0.0555288 0)
(2.65146 0.151228 0)
(2.0489 0.439425 0)
(1.46491 0.826072 0)
(1.31196 0.882002 0)
(1.30189 0.892366 0)
(1.32638 0.883335 0)
(1.36837 0.864546 0)
(1.4062 0.849861 0)
(3 4.88978e-09 0)
(3 3.09403e-08 0)
(3 1.05771e-07 0)
(3 3.00645e-07 0)
(3 7.80969e-07 0)
(3 1.96553e-06 0)
(2.99999 4.88174e-06 0)
(2.99997 1.18857e-05 0)
(2.99994 2.93876e-05 0)
(2.99985 7.06965e-05 0)
(2.99963 0.00017555 0)
(2.9991 0.000420094 0)
(2.99781 0.00104526 0)
(2.99467 0.00251491 0)
(2.98691 0.0062513 0)
(2.96744 0.0153784 0)
(2.91662 0.0392623 0)
(2.77698 0.10464 0)
(2.37228 0.300775 0)
(1.6948 0.742209 0)
(1.38277 0.880557 0)
(1.338 0.899284 0)
(1.34732 0.898268 0)
(1.38204 0.877038 0)
(1.41859 0.852221 0)
(3 3.45567e-09 0)
(3 2.13901e-08 0)
(3 7.47625e-08 0)
(3 2.07465e-07 0)
(3 5.50128e-07 0)
(3 1.36125e-06 0)
(2.99999 3.41199e-06 0)
(2.99998 8.27898e-06 0)
(2.99996 2.04007e-05 0)
(2.9999 4.94641e-05 0)
(2.99975 0.000121139 0)
(2.9994 0.000294875 0)
(2.99855 0.000718167 0)
(2.99644 0.0017598 0)
(2.99136 0.00428932 0)
(2.97863 0.0105902 0)
(2.94631 0.0265143 0)
(2.86004 0.0690856 0)
(2.61447 0.191716 0)
(1.99822 0.542603 0)
(1.50375 0.857387 0)
(1.38282 0.903829 0)
(1.37224 0.907282 0)
(1.39106 0.889583 0)
(1.42139 0.855657 0)
(3 2.31767e-09 0)
(3 1.49945e-08 0)
(3 5.04248e-08 0)
(3 1.45621e-07 0)
(3 3.71501e-07 0)
(3 9.50567e-07 0)
(3 2.30709e-06 0)
(2.99999 5.74195e-06 0)
(2.99997 1.38369e-05 0)
(2.99993 3.40804e-05 0)
(2.99984 8.2388e-05 0)
(2.9996 0.000201547 0)
(2.99904 0.000490397 0)
(2.99764 0.00119288 0)
(2.99426 0.00292489 0)
(2.98592 0.00714559 0)
(2.96503 0.0177046 0)
(2.91031 0.0451128 0)
(2.75998 0.120464 0)
(2.32897 0.348771 0)
(1.70591 0.783271 0)
(1.44023 0.900947 0)
(1.39811 0.910044 0)
(1.40037 0.893419 0)
(1.41452 0.854791 0)
(3 1.63808e-09 0)
(3 9.91748e-09 0)
(3 3.52e-08 0)
(3 9.62764e-08 0)
(3 2.58298e-07 0)
(3 6.30978e-07 0)
(3 1.59836e-06 0)
(2.99999 3.81982e-06 0)
(2.99998 9.5183e-06 0)
(2.99996 2.27982e-05 0)
(2.99989 5.6181e-05 0)
(2.99974 0.000135556 0)
(2.99938 0.000331707 0)
(2.99847 0.000806072 0)
(2.99632 0.00196294 0)
(2.99093 0.00481509 0)
(2.97783 0.0117908 0)
(2.94418 0.0296595 0)
(2.85482 0.0771597 0)
(2.59997 0.215953 0)
(1.9969 0.589111 0)
(1.5483 0.873185 0)
(1.43031 0.908615 0)
(1.40829 0.885536 0)
(1.40413 0.837118 0)
(3 1.06792e-09 0)
(3 6.69169e-09 0)
(3 2.28765e-08 0)
(3 6.48213e-08 0)
(3 1.68271e-07 0)
(3 4.21029e-07 0)
(3 1.04515e-06 0)
(3 2.52778e-06 0)
(2.99999 6.2633e-06 0)
(2.99997 1.48918e-05 0)
(2.99993 3.71845e-05 0)
(2.99983 8.76121e-05 0)
(2.99959 0.000219482 0)
(2.999 0.000516956 0)
(2.9976 0.00129398 0)
(2.99411 0.00307071 0)
(2.98568 0.00765907 0)
(2.96433 0.018666 0)
(2.90888 0.0477762 0)
(2.75651 0.127372 0)
(2.32722 0.366448 0)
(1.732 0.788899 0)
(1.4647 0.894551 0)
(1.40158 0.868096 0)
(1.37649 0.796269 0)
(3 6.98009e-10 0)
(3 4.33211e-09 0)
(3 1.49362e-08 0)
(3 4.19648e-08 0)
(3 1.09633e-07 0)
(3 2.72363e-07 0)
(3 6.79241e-07 0)
(3 1.63192e-06 0)
(2.99999 4.0566e-06 0)
(2.99998 9.61131e-06 0)
(2.99995 2.39824e-05 0)
(2.99989 5.65001e-05 0)
(2.99973 0.00014113 0)
(2.99936 0.000333101 0)
(2.99844 0.000828886 0)
(2.99624 0.00197318 0)
(2.9908 0.00488829 0)
(2.97745 0.0118653 0)
(2.94333 0.0298434 0)
(2.85286 0.0774518 0)
(2.59556 0.216796 0)
(2.00164 0.58129 0)
(1.53547 0.851106 0)
(1.37908 0.842738 0)
(1.32206 0.733656 0)
(3 4.23518e-10 0)
(3 2.74079e-09 0)
(3 9.25122e-09 0)
(3 2.65104e-08 0)
(3 6.77351e-08 0)
(3 1.72337e-07 0)
(3 4.15866e-07 0)
(3 1.033e-06 0)
(2.99999 2.4624e-06 0)
(2.99999 6.06791e-06 0)
(2.99997 1.44651e-05 0)
(2.99993 3.54151e-05 0)
(2.99982 8.49042e-05 0)
(2.99957 0.000206176 0)
(2.99897 0.000497897 0)
(2.99749 0.00120318 0)
(2.99391 0.00292649 0)
(2.98506 0.00709187 0)
(2.96294 0.0175095 0)
(2.90522 0.0442548 0)
(2.74689 0.118434 0)
(2.30938 0.340031 0)
(1.66874 0.727988 0)
(1.33181 0.782561 0)
(1.22919 0.64588 0)
(3 2.49458e-10 0)
(3 1.68485e-09 0)
(3 5.50777e-09 0)
(3 1.62618e-08 0)
(3 4.03221e-08 0)
(3 1.05073e-07 0)
(3 2.46714e-07 0)
(3 6.24846e-07 0)
(3 1.4532e-06 0)
(2.99999 3.63016e-06 0)
(2.99998 8.49502e-06 0)
(2.99995 2.09425e-05 0)
(2.99988 4.95818e-05 0)
(2.99971 0.000120084 0)
(2.99928 0.000289238 0)
(2.99826 0.000688565 0)
(2.99571 0.00168277 0)
(2.98957 0.00398463 0)
(2.97412 0.00982569 0)
(2.93454 0.024122 0)
(2.8278 0.0626547 0)
(2.52757 0.174225 0)
(1.84036 0.469032 0)
(1.26085 0.646525 0)
(1.09709 0.525986 0)
(3 1.47764e-10 0)
(3 9.45914e-10 0)
(3 3.23229e-09 0)
(3 9.13286e-09 0)
(3 2.34524e-08 0)
(3 5.91453e-08 0)
(3 1.41409e-07 0)
(3 3.51747e-07 0)
(3 8.16238e-07 0)
(2.99999 2.05197e-06 0)
(2.99998 4.66878e-06 0)
(2.99996 1.18289e-05 0)
(2.99991 2.67156e-05 0)
(2.99977 6.77046e-05 0)
(2.99944 0.000152774 0)
(2.99865 0.00038484 0)
(2.99666 0.000875855 0)
(2.99183 0.00217661 0)
(2.97966 0.00507323 0)
(2.94846 0.0125521 0)
(2.86399 0.0312028 0)
(2.62422 0.0828026 0)
(1.97423 0.235382 0)
(1.16007 0.474711 0)
(0.908424 0.396778 0)
(3 8.58022e-11 0)
(3 5.04697e-10 0)
(3 1.83176e-09 0)
(3 4.83828e-09 0)
(3 1.32074e-08 0)
(3 3.11741e-08 0)
(3 7.91215e-08 0)
(3 1.84726e-07 0)
(3 4.52168e-07 0)
(2.99999 1.07405e-06 0)
(2.99999 2.55414e-06 0)
(2.99997 6.20331e-06 0)
(2.99992 1.43422e-05 0)
(2.99981 3.57285e-05 0)
(2.99954 8.05603e-05 0)
(2.99886 0.000204731 0)
(2.9972 0.000453595 0)
(2.99306 0.00116384 0)
(2.98274 0.00261803 0)
(2.95606 0.00661485 0)
(2.88396 0.0160803 0)
(2.67667 0.0424395 0)
(2.07723 0.117301 0)
(1.07104 0.296415 0)
(0.688775 0.272291 0)
(3 4.41666e-11 0)
(3 2.74692e-10 0)
(3 9.32797e-10 0)
(3 2.63974e-09 0)
(3 6.71132e-09 0)
(3 1.66282e-08 0)
(3 4.06023e-08 0)
(3 9.53858e-08 0)
(3 2.35468e-07 0)
(3 5.35114e-07 0)
(2.99999 1.34409e-06 0)
(2.99997 2.97867e-06 0)
(2.99993 7.60746e-06 0)
(2.99983 1.66921e-05 0)
(2.99959 4.29429e-05 0)
(2.99896 9.30986e-05 0)
(2.99746 0.000243243 0)
(2.99364 0.000531259 0)
(2.98419 0.0013681 0)
(2.95959 0.00316325 0)
(2.89308 0.00809008 0)
(2.70042 0.0208444 0)
(2.12453 0.0573038 0)
(1.00226 0.154303 0)
(0.491967 0.170314 0)
(3 2.52477e-11 0)
(3 1.46916e-10 0)
(3 5.31251e-10 0)
(3 1.41407e-09 0)
(3 3.84887e-09 0)
(3 8.97583e-09 0)
(3 2.30197e-08 0)
(3 5.20682e-08 0)
(3 1.32724e-07 0)
(3 2.93529e-07 0)
(2.99999 7.50852e-07 0)
(2.99997 1.66742e-06 0)
(2.99994 4.17679e-06 0)
(2.99984 9.5515e-06 0)
(2.9996 2.3218e-05 0)
(2.99903 5.4775e-05 0)
(2.99756 0.000130685 0)
(2.994 0.000319564 0)
(2.98492 0.000761461 0)
(2.96164 0.0019078 0)
(2.89849 0.00484108 0)
(2.71558 0.0130906 0)
(2.16294 0.0377451 0)
(0.99448 0.10712 0)
(0.388693 0.13314 0)
(3 1.58089e-11 0)
(3 8.49333e-11 0)
(3 3.44122e-10 0)
(3 8.13985e-10 0)
(3 2.48423e-09 0)
(3 5.42868e-09 0)
(3 1.43702e-08 0)
(3 3.37273e-08 0)
(3 7.92997e-08 0)
(3 2.04195e-07 0)
(2.99999 4.3411e-07 0)
(2.99997 1.22993e-06 0)
(2.99994 2.37621e-06 0)
(2.99985 7.34499e-06 0)
(2.99962 1.3266e-05 0)
(2.99905 4.37062e-05 0)
(2.99768 7.62375e-05 0)
(2.99416 0.000255653 0)
(2.98551 0.000486345 0)
(2.963 0.00145469 0)
(2.90237 0.00345973 0)
(2.72779 0.00988923 0)
(2.20091 0.0292137 0)
(1.02518 0.0887842 0)
(0.374683 0.124523 0)
(3 7.37117e-12 0)
(3 7.48182e-11 0)
(3 1.672e-10 0)
(3 7.20413e-10 0)
(3 1.2334e-09 0)
(3 4.40248e-09 0)
(3 8.20403e-09 0)
(3 2.44716e-08 0)
(3 5.25387e-08 0)
(3 1.31588e-07 0)
(2.99999 3.38919e-07 0)
(2.99998 6.91517e-07 0)
(2.99994 2.20417e-06 0)
(2.99985 3.65267e-06 0)
(2.99963 1.43029e-05 0)
(2.99908 2.03586e-05 0)
(2.99774 9.02289e-05 0)
(2.99434 0.000132219 0)
(2.98592 0.000526269 0)
(2.96412 0.00101045 0)
(2.90554 0.00310866 0)
(2.73732 0.00812369 0)
(2.23173 0.024525 0)
(1.06554 0.0747933 0)
(0.393886 0.119975 0)
(3 7.22795e-12 0)
(3 4.74555e-11 0)
(3 1.37888e-10 0)
(3 4.63825e-10 0)
(3 1.01012e-09 0)
(3 2.85799e-09 0)
(3 6.92605e-09 0)
(3 1.52254e-08 0)
(3 4.66078e-08 0)
(3 8.11864e-08 0)
(2.99999 3.03156e-07 0)
(2.99998 4.45617e-07 0)
(2.99994 1.98332e-06 0)
(2.99986 2.52317e-06 0)
(2.99964 1.26458e-05 0)
(2.99911 1.62522e-05 0)
(2.99777 7.76106e-05 0)
(2.99453 0.000114599 0)
(2.98624 0.000454257 0)
(2.96515 0.000892635 0)
(2.90835 0.00274685 0)
(2.74578 0.00725232 0)
(2.25888 0.0218687 0)
(1.10773 0.0667212 0)
(0.421738 0.113334 0)
(3 5.09901e-12 0)
(3 3.47499e-11 0)
(3 1.19731e-10 0)
(3 3.35012e-10 0)
(3 8.85264e-10 0)
(3 2.29411e-09 0)
(3 5.14349e-09 0)
(3 1.48398e-08 0)
(3 2.92404e-08 0)
(3 9.71797e-08 0)
(2.99999 1.68881e-07 0)
(2.99998 6.201e-07 0)
(2.99994 1.03193e-06 0)
(2.99986 4.01173e-06 0)
(2.99964 6.30209e-06 0)
(2.99913 2.56062e-05 0)
(2.99782 4.1743e-05 0)
(2.99465 0.000155416 0)
(2.98657 0.000302446 0)
(2.96604 0.000934998 0)
(2.91087 0.00228159 0)
(2.75352 0.00662302 0)
(2.28343 0.019529 0)
(1.14835 0.0599126 0)
(0.450909 0.104772 0)
(3 3.90906e-12 0)
(3 2.42496e-11 0)
(3 1.03316e-10 0)
(3 2.30367e-10 0)
(3 7.48988e-10 0)
(3 1.69067e-09 0)
(3 4.06383e-09 0)
(3 1.24122e-08 0)
(3 2.09368e-08 0)
(3 8.62852e-08 0)
(2.99999 1.11939e-07 0)
(2.99998 5.7896e-07 0)
(2.99994 6.25422e-07 0)
(2.99986 3.83497e-06 0)
(2.99965 3.94194e-06 0)
(2.99914 2.42421e-05 0)
(2.99788 2.88093e-05 0)
(2.99474 0.000148686 0)
(2.98689 0.000236164 0)
(2.9668 0.000860977 0)
(2.91314 0.00195809 0)
(2.76041 0.00589288 0)
(2.30552 0.0172381 0)
(1.18628 0.0529481 0)
(0.479834 0.0950431 0)
(3 5.67495e-12 0)
(3 6.48662e-12 0)
(3 8.46953e-11 0)
(3 7.29819e-11 0)
(3 6.14787e-10 0)
(3 4.40964e-10 0)
(3 4.49544e-09 0)
(3 2.04567e-09 0)
(3 3.07316e-08 0)
(3 1.30833e-08 0)
(2.99999 1.98018e-07 0)
(2.99998 1.18119e-07 0)
(2.99994 1.2414e-06 0)
(2.99986 1.07917e-06 0)
(2.99966 7.5362e-06 0)
(2.99916 9.94963e-06 0)
(2.99793 4.46372e-05 0)
(2.99483 8.26245e-05 0)
(2.98717 0.000273063 0)
(2.96748 0.00062691 0)
(2.91512 0.00181845 0)
(2.76651 0.00499812 0)
(2.32482 0.0149464 0)
(1.22135 0.0456462 0)
(0.508329 0.084015 0)
(3 4.18035e-12 0)
(3 5.99436e-12 0)
(3 5.62852e-11 0)
(3 5.70444e-11 0)
(3 4.56976e-10 0)
(3 2.47232e-10 0)
(3 3.69829e-09 0)
(3 4.2961e-10 0)
(3 2.6402e-08 0)
(3 2.08182e-10 0)
(2.99999 1.75049e-07 0)
(2.99998 3.35764e-08 0)
(2.99994 1.09644e-06 0)
(2.99987 6.05868e-07 0)
(2.99966 6.69475e-06 0)
(2.99917 6.82174e-06 0)
(2.99794 4.10718e-05 0)
(2.99493 6.19378e-05 0)
(2.98734 0.000248157 0)
(2.96811 0.000509059 0)
(2.91678 0.00158489 0)
(2.77175 0.00423569 0)
(2.34113 0.0126657 0)
(1.25258 0.0381326 0)
(0.534441 0.0714439 0)
(3 -1.88902e-12 0)
(3 1.59514e-11 0)
(3 -8.63394e-12 0)
(3 1.60665e-10 0)
(3 -2.28464e-11 0)
(3 1.12512e-09 0)
(3 -1.27783e-10 0)
(3 7.83745e-09 0)
(3 6.0614e-10 0)
(3 5.18619e-08 0)
(2.99999 2.30439e-08 0)
(2.99998 3.26532e-07 0)
(2.99995 2.93264e-07 0)
(2.99987 2.00959e-06 0)
(2.99967 3.00088e-06 0)
(2.99918 1.15844e-05 0)
(2.99797 2.62794e-05 0)
(2.995 6.8904e-05 0)
(2.98754 0.00018814 0)
(2.96861 0.00046893 0)
(2.91822 0.00128971 0)
(2.77609 0.00356755 0)
(2.35455 0.0104407 0)
(1.2791 0.0306759 0)
(0.556737 0.0579501 0)
(3 -1.7751e-12 0)
(3 8.53401e-12 0)
(3 -2.49589e-12 0)
(3 9.43928e-11 0)
(3 -1.15926e-11 0)
(3 8.77666e-10 0)
(3 -4.85871e-10 0)
(3 7.62388e-09 0)
(3 -3.81992e-09 0)
(3 5.73663e-08 0)
(2.99999 -1.54436e-08 0)
(2.99998 3.75363e-07 0)
(2.99995 2.02703e-08 0)
(2.99987 2.2831e-06 0)
(2.99967 1.03891e-06 0)
(2.99919 1.32786e-05 0)
(2.99799 1.1987e-05 0)
(2.99507 7.58264e-05 0)
(2.98768 0.000113072 0)
(2.96902 0.000434712 0)
(2.91944 0.000960131 0)
(2.77943 0.00289594 0)
(2.36533 0.00815852 0)
(1.30023 0.0235244 0)
(0.574378 0.0444129 0)
(3 3.62274e-12 0)
(3 -1.23435e-11 0)
(3 6.01061e-11 0)
(3 -1.20253e-10 0)
(3 4.15437e-10 0)
(3 -4.63044e-10 0)
(3 2.33524e-09 0)
(3 -9.82877e-10 0)
(3 1.19008e-08 0)
(3 6.68097e-09 0)
(2.99999 5.29181e-08 0)
(2.99998 1.29844e-07 0)
(2.99995 1.98079e-07 0)
(2.99987 1.33749e-06 0)
(2.99968 5.25726e-07 0)
(2.99919 1.12918e-05 0)
(2.99802 1.61792e-06 0)
(2.99508 7.70791e-05 0)
(2.98784 3.91161e-05 0)
(2.96931 0.000387375 0)
(2.92034 0.000623527 0)
(2.78208 0.00218194 0)
(2.37304 0.00580989 0)
(1.31642 0.0167125 0)
(0.587946 0.0314445 0)
(3 2.03531e-13 0)
(3 3.8488e-12 0)
(3 -1.07761e-11 0)
(3 4.40856e-11 0)
(3 -4.96577e-11 0)
(3 1.57816e-10 0)
(3 5.15733e-10 0)
(3 -5.45151e-10 0)
(3 8.73032e-09 0)
(3 -9.9594e-09 0)
(2.99999 8.12465e-08 0)
(2.99998 -8.25853e-08 0)
(2.99995 6.16286e-07 0)
(2.99987 -5.44727e-07 0)
(2.99968 4.10982e-06 0)
(2.9992 -2.62263e-06 0)
(2.99804 2.43691e-05 0)
(2.9951 -6.73826e-06 0)
(2.98794 0.000121035 0)
(2.96952 7.3286e-05 0)
(2.92092 0.000542841 0)
(2.78391 0.00111525 0)
(2.378 0.00349221 0)
(1.32732 0.00987509 0)
(0.597387 0.0187885 0)
(3 -2.11891e-12 0)
(3 1.20466e-11 0)
(3 -3.90582e-11 0)
(3 1.25359e-10 0)
(3 -2.38184e-10 0)
(3 6.05037e-10 0)
(3 -8.54792e-10 0)
(3 2.18154e-09 0)
(3 -1.4928e-10 0)
(3 3.20052e-09 0)
(2.99999 3.23718e-08 0)
(2.99998 -4.53983e-08 0)
(2.99995 3.83842e-07 0)
(2.99987 -6.75223e-07 0)
(2.99967 3.24199e-06 0)
(2.99921 -5.68174e-06 0)
(2.99802 2.08132e-05 0)
(2.99516 -3.27976e-05 0)
(2.98791 9.76375e-05 0)
(2.96967 -7.06817e-05 0)
(2.9212 0.000278157 0)
(2.78463 0.000250227 0)
(2.38066 0.00116986 0)
(1.33215 0.00321489 0)
(0.601854 0.00627255 0)
(1.1193 0.999722 0)
(1.00453 0.710946 0)
(0.0935528 0.429488 0)
(-0.422463 0.0239931 0)
(-0.54643 -0.00852932 0)
(-0.692861 -0.023158 0)
(-0.749421 -0.0108938 0)
(-0.800702 0.0123074 0)
(-0.868211 0.0189575 0)
(-0.933299 0.0157193 0)
(-0.986237 0.00817797 0)
(-1.03235 0.00144439 0)
(-1.07992 -0.00191392 0)
(-1.12137 0.000480367 0)
(-1.14351 0.00137778 0)
(-1.14863 -0.000105615 0)
(-1.14383 -0.00280256 0)
(-1.12529 -0.00575857 0)
(-1.09023 -0.00888031 0)
(-1.04152 -0.0118446 0)
(-0.983446 -0.014168 0)
(-0.92044 -0.0155782 0)
(-0.855663 -0.0163816 0)
(-0.791425 -0.0166326 0)
(-0.728986 -0.0165399 0)
(-0.668703 -0.0162407 0)
(-0.610458 -0.0159488 0)
(-0.553849 -0.0157468 0)
(-0.498488 -0.0157742 0)
(-0.444214 -0.015991 0)
(-0.390192 -0.0167786 0)
(-0.335932 -0.0182612 0)
(-0.282641 -0.0193073 0)
(-0.230667 -0.0199832 0)
(-0.180167 -0.0207771 0)
(-0.130745 -0.0215163 0)
(-0.0821486 -0.0223322 0)
(-0.0353818 -0.0236474 0)
(0.014421 -0.025238 0)
(0.0638907 -0.0238677 0)
(0.10829 -0.0221313 0)
(0.151813 -0.0210332 0)
(0.193834 -0.0203188 0)
(0.233949 -0.0194447 0)
(0.271513 -0.0185465 0)
(0.30805 -0.0181295 0)
(0.346197 -0.018339 0)
(0.384208 -0.0180428 0)
(0.420603 -0.0173228 0)
(0.455654 -0.0166467 0)
(0.48974 -0.0161324 0)
(0.522963 -0.0156562 0)
(0.555426 -0.0151935 0)
(0.587137 -0.014749 0)
(0.618113 -0.0143076 0)
(0.648407 -0.0138727 0)
(0.678036 -0.0134512 0)
(0.707029 -0.0130303 0)
(0.735413 -0.012621 0)
(0.763198 -0.0122138 0)
(0.790417 -0.0118125 0)
(0.817091 -0.0114172 0)
(0.843237 -0.0110263 0)
(0.868877 -0.010642 0)
(0.894036 -0.0102582 0)
(0.918734 -0.00988379 0)
(0.942987 -0.00950609 0)
(0.96682 -0.00913504 0)
(0.99024 -0.00876043 0)
(1.01327 -0.00838738 0)
(1.03592 -0.00801104 0)
(1.05819 -0.00763355 0)
(1.08011 -0.00725295 0)
(1.10166 -0.00687184 0)
(1.12285 -0.00648942 0)
(1.14369 -0.00610877 0)
(1.16418 -0.0057302 0)
(1.18433 -0.00535678 0)
(1.20414 -0.00498966 0)
(1.22361 -0.0046314 0)
(1.24276 -0.00428187 0)
(1.26158 -0.00394364 0)
(1.2801 -0.00361417 0)
(1.2983 -0.00329619 0)
(1.31621 -0.00298807 0)
(1.3338 -0.00268759 0)
(1.35109 -0.0024027 0)
(1.36808 -0.00212896 0)
(1.38475 -0.00185896 0)
(1.40109 -0.00158706 0)
(1.41709 -0.0013261 0)
(1.43271 -0.001077 0)
(1.44789 -0.000858721 0)
(1.46257 -0.000633958 0)
(1.47665 -0.000393656 0)