/*--------------------------------*- C++ -*----------------------------------*\
  =========                 |
  \\      /  F ield         | OpenFOAM: The Open Source CFD Toolbox
   \\    /   O peration     | Website:  https://openfoam.org
    \\  /    A nd           | Version:  13
     \\/     M anipulation  |
\*---------------------------------------------------------------------------*/
FoamFile
{
    format      ascii;
    class       surfaceScalarField;
    location    "6";
    object      phi;
}
// * * * * * * * * * * * * * * * * * * * * * * * * * * * * * * * * * * * * * //

dimensions      [1 0 -1 0 0 0 0];

internalField   nonuniform List<scalar> 
10325
(
0.0840003
3.17517e-10
0.0840001
8.97193e-09
0.0840008
8.71617e-09
0.0839988
8.22218e-08
0.0840037
9.5123e-08
0.0839903
4.26743e-07
0.0840217
8.36734e-07
0.0839473
2.33845e-06
0.0840867
5.81581e-06
0.0838276
1.26726e-05
0.0840995
3.67948e-05
0.0836844
9.34626e-05
0.0835653
0.00031369
0.0822191
0.0011616
0.0760112
0.00593795
0.0695383
0.00655459
0.0632958
0.00627141
0.0568069
0.00649145
0.0500121
0.00679958
0.0428423
0.00718174
0.0351931
0.00766538
0.02706
0.00814939
0.0184925
0.00858137
0.00948649
0.0090154
0.00949319
0.0840003
1.74821e-09
0.0840004
9.63687e-09
0.0839999
3.98686e-08
0.084001
9.98744e-08
0.0839988
2.6808e-07
0.0840004
7.89853e-07
0.0839974
1.46366e-06
0.0839914
5.34319e-06
0.083992
8.65657e-06
0.0839682
3.17435e-05
0.0839224
6.3257e-05
0.0838278
0.000206934
0.0834799
0.000619535
0.0822045
0.00235443
0.0760345
0.0118151
0.0694275
0.0132428
0.0632625
0.0124656
0.0568669
0.0128898
0.0501215
0.0135499
0.0428858
0.0144297
0.0351575
0.01541
0.0269513
0.0163724
0.0182792
0.0172677
0.00921848
0.018086
0.0187189
0.0840003
1.50752e-09
0.0840001
1.9791e-08
0.084001
4.0392e-08
0.0839988
1.94751e-07
0.0840036
3.2572e-07
0.0839923
1.20526e-06
0.0840162
2.25957e-06
0.083961
7.04953e-06
0.084055
1.50443e-05
0.0838757
4.14246e-05
0.0840491
0.000104537
0.0837125
0.000295341
0.0835367
0.000937969
0.0822848
0.00345422
0.0765476
0.0172634
0.0698455
0.0200327
0.0636961
0.0186447
0.0573752
0.0192139
0.0506923
0.0202384
0.0434709
0.0216647
0.0356989
0.0232003
0.0274078
0.0246787
0.018601
0.0260889
0.00936928
0.0273297
0.0280963
0.0840003
4.86506e-09
0.0840005
1.56561e-08
0.0839998
9.15105e-08
0.0840012
1.50561e-07
0.0839973
6.55706e-07
0.0840068
1.05553e-06
0.0839813
4.01101e-06
0.0840379
6.99064e-06
0.0839092
2.3428e-05
0.0841031
4.8645e-05
0.0837951
0.000141511
0.0839577
0.000377934
0.0834583
0.00120658
0.0825384
0.00440069
0.0776568
0.0218145
0.0708856
0.0268936
0.0646998
0.0248626
0.058429
0.0254874
0.0518185
0.026854
0.04462
0.0288731
0.0368348
0.0310003
0.0284617
0.0330724
0.0194465
0.0351219
0.00985201
0.0369343
0.0379566
0.0840003
2.54895e-09
0.0840001
2.90739e-08
0.0840008
6.55525e-08
0.083999
2.8179e-07
0.0840034
5.15789e-07
0.0839915
1.78507e-06
0.0840201
3.48262e-06
0.0839532
1.06822e-05
0.0840858
2.29894e-05
0.0838349
6.40681e-05
0.0841295
0.000158377
0.0837132
0.000450719
0.0837355
0.00140034
0.0828862
0.00505657
0.0796663
0.0247318
0.0728109
0.0338466
0.0664388
0.0312687
0.0601395
0.0317938
0.0535909
0.0334129
0.046457
0.0360281
0.038637
0.0388439
0.0301164
0.0416168
0.0208025
0.0444532
0.0106727
0.0470803
0.0486433
0.0840003
5.26087e-09
0.0840005
2.08914e-08
0.0839998
1.03667e-07
0.0840014
2.07197e-07
0.0839971
7.50702e-07
0.084008
1.46925e-06
0.0839817
4.60945e-06
0.0840426
9.63294e-06
0.0839131
2.76214e-05
0.0841273
6.38828e-05
0.0838033
0.000174925
0.0840841
0.000473814
0.0837268
0.00147536
0.083591
0.00525332
0.0830972
0.0248745
0.0761463
0.0408838
0.0692508
0.0382035
0.0627961
0.0382572
0.0562431
0.0399738
0.0491126
0.0431712
0.0412563
0.0467165
0.0325493
0.0503433
0.0228386
0.054184
0.0119352
0.0580009
0.0605944
0.0840003
2.79619e-09
0.0840002
2.83065e-08
0.0840007
6.92123e-08
0.0839993
2.772e-07
0.0840029
5.32669e-07
0.0839936
1.78279e-06
0.0840174
3.52349e-06
0.0839642
1.07315e-05
0.084081
2.29324e-05
0.0838729
6.41916e-05
0.0841825
0.000155629
0.0838817
0.000436583
0.084282
0.0013064
0.0848097
0.00453223
0.0891719
0.0202219
0.0821129
0.0480092
0.0737165
0.0466372
0.0668637
0.0451253
0.0601632
0.0466903
0.0529575
0.050394
0.0449438
0.0547533
0.0359868
0.0593235
0.0257874
0.0644075
0.0139184
0.0698872
0.0745276
0.0840003
4.53129e-09
0.0840004
1.82714e-08
0.084
8.94333e-08
0.0840011
1.79019e-07
0.0839982
6.51075e-07
0.084006
1.23884e-06
0.0839872
3.97788e-06
0.0840346
7.97168e-06
0.0839368
2.34809e-05
0.0841291
5.17513e-05
0.0838654
0.00014194
0.0842409
0.000364758
0.0841759
0.00108625
0.0851877
0.00362223
0.0896636
0.0155427
0.0853329
0.0522646
0.0768997
0.0550425
0.0707218
0.0513069
0.0642148
0.0532074
0.0572856
0.0573397
0.0494206
0.0626409
0.0403984
0.0683695
0.0299023
0.0749249
0.0170437
0.0827638
0.0915883
0.0840003
2.72128e-09
0.0840002
2.39229e-08
0.0840006
6.33673e-08
0.0839996
2.32367e-07
0.0840023
4.79814e-07
0.0839952
1.48606e-06
0.0840133
3.13327e-06
0.0839721
8.81016e-06
0.0840661
1.9932e-05
0.0838915
5.23037e-05
0.0841647
0.000128662
0.0838723
0.000345248
0.0842029
0.000995804
0.084365
0.00328395
0.0862344
0.0135923
0.0835741
0.0547327
0.0796182
0.0588974
0.0736261
0.0573161
0.0673678
0.0594706
0.0613424
0.0633717
0.0541841
0.0698117
0.0458757
0.076697
0.0359547
0.0848665
0.0222646
0.0964734
0.113869
0.0840003
3.2809e-09
0.0840005
2.05986e-08
0.0839999
7.12129e-08
0.0840013
2.01662e-07
0.0839982
5.29224e-07
0.0840057
1.34013e-06
0.083989
3.32641e-06
0.0840281
8.29703e-06
0.0839456
2.03566e-05
0.0840974
5.11749e-05
0.0838637
0.000128162
0.0841419
0.000340077
0.0838868
0.000969623
0.0841549
0.00316385
0.0851139
0.0124626
0.0833335
0.0563116
0.0799091
0.0622963
0.0752064
0.0620254
0.0704438
0.0642439
0.0652241
0.0686073
0.0595563
0.0754959
0.0529544
0.0833163
0.0440026
0.0938362
0.0309926
0.109501
0.144873
0.0840003
3.18819e-09
0.0840004
2.11437e-08
0.084
7.13891e-08
0.0840011
2.07082e-07
0.0839984
5.32483e-07
0.084005
1.38716e-06
0.0839901
3.34087e-06
0.0840246
8.64486e-06
0.0839499
2.03977e-05
0.0840878
5.32004e-05
0.0838639
0.000128967
0.0841263
0.000346801
0.083843
0.000967168
0.084054
0.00311711
0.0845741
0.0117746
0.0844741
0.0561917
0.0806192
0.066162
0.0766956
0.0659662
0.0732852
0.0676572
0.0693642
0.0725276
0.0655907
0.0792716
0.0611151
0.0877986
0.0568153
0.0981472
0.056257
0.110071
0.114372
0.0867674
0.0840003
3.81002e-09
0.0840004
1.91455e-08
0.0840001
7.91757e-08
0.0840007
1.86418e-07
0.0839991
5.8172e-07
0.0840032
1.26759e-06
0.0839923
3.63535e-06
0.0840195
8.06285e-06
0.0839558
2.19515e-05
0.0840872
5.13049e-05
0.0838528
0.000134786
0.0841543
0.000343595
0.0838307
0.000968081
0.084118
0.00303917
0.0845703
0.0111294
0.0873616
0.053153
0.0832728
0.0702799
0.0792285
0.0700298
0.0760257
0.0708788
0.073206
0.0753631
0.0705631
0.0819307
0.0684367
0.0899403
0.0678429
0.0987574
0.0719475
0.105984
0.104828
0.0814923
0.0840003
2.82771e-09
0.0840002
2.17613e-08
0.0840006
6.39082e-08
0.0839998
2.12372e-07
0.0840018
4.82142e-07
0.083997
1.39028e-06
0.0840091
3.105e-06
0.0839826
8.50253e-06
0.0840458
1.96345e-05
0.0839191
5.17965e-05
0.0841444
0.000126557
0.0838398
0.000334497
0.0842108
0.000914008
0.08414
0.00281784
0.0853145
0.0100221
0.0932863
0.0448676
0.0884493
0.0751605
0.0833314
0.0751851
0.0799076
0.0743275
0.0775162
0.0777683
0.0758248
0.0836334
0.0754237
0.0903557
0.0774159
0.096772
0.082383
0.101028
0.0990815
0.0881407
0.0840003
2.79132e-09
0.0840004
1.65839e-08
0.0840002
6.02768e-08
0.0840006
1.62156e-07
0.0839997
4.4472e-07
0.0840025
1.0921e-06
0.0839958
2.7691e-06
0.0840151
6.85877e-06
0.0839757
1.67623e-05
0.0840776
4.23503e-05
0.0839239
0.000103224
0.0842454
0.000267081
0.084146
0.000707274
0.0850963
0.00208313
0.0879426
0.00698129
0.10348
0.0290272
0.0966826
0.0820011
0.0908305
0.0810812
0.0857003
0.079493
0.0827857
0.0807009
0.0815627
0.0848685
0.0819672
0.0899668
0.0843018
0.0944494
0.0886014
0.0967332
0.094435
0.0932476
0.0840003
2.45806e-09
0.0840003
1.38795e-08
0.0840004
5.09379e-08
0.0840002
1.34896e-07
0.0840007
3.79857e-07
0.0840002
8.72916e-07
0.0840006
2.42978e-06
0.0840038
5.269e-06
0.0839952
1.48941e-05
0.0840302
3.20779e-05
0.083987
8.97676e-05
0.0841301
0.000206683
0.0841609
0.000571606
0.0847224
0.00158494
0.0864311
0.00517657
0.0949817
0.0203878
0.0991948
0.0776836
0.0957813
0.0844952
0.0905645
0.0847201
0.0878899
0.0833867
0.0869105
0.0858637
0.0874476
0.089438
0.0895613
0.0923483
0.0930685
0.0932402
0.0906627
0.0968485
0.0840003
1.79563e-09
0.0840003
1.30096e-08
0.0840003
4.08834e-08
0.0840005
1.27774e-07
0.0840002
3.02541e-07
0.0840007
8.48753e-07
0.0840007
1.89126e-06
0.0839994
5.2e-06
0.0840076
1.15682e-05
0.0839907
3.13567e-05
0.0840412
7.18801e-05
0.0840012
0.000191451
0.0841433
0.000479124
0.0843101
0.00136041
0.0852392
0.00426294
0.0895822
0.0159221
0.0985713
0.0684399
0.0970622
0.0859816
0.0945654
0.0872107
0.0920357
0.0859305
0.0912846
0.0866297
0.0919391
0.0888006
0.0937611
0.0905318
0.0965272
0.0904794
0.0877283
0.0994678
0.0840003
1.8949e-09
0.0840004
1.0024e-08
0.0840003
3.97128e-08
0.0840005
9.7802e-08
0.0839999
2.9378e-07
0.0840016
6.59029e-07
0.0839976
1.83615e-06
0.0840095
4.14425e-06
0.0839835
1.10796e-05
0.0840527
2.58135e-05
0.0839243
6.72939e-05
0.0841827
0.000163767
0.0838967
0.000431499
0.0844229
0.00117126
0.0847736
0.00360205
0.0879571
0.0128158
0.10149
0.0546037
0.10066
0.0868289
0.0981241
0.0897651
0.0957406
0.0883344
0.0950293
0.0873562
0.0956083
0.088234
0.0971214
0.0890281
0.0992641
0.0883397
0.0855124
0.101479
0.0840003
1.28666e-09
0.0840003
9.23007e-09
0.0840004
2.8664e-08
0.0840002
8.97813e-08
0.0840007
2.14342e-07
0.0839997
5.85193e-07
0.084003
1.37131e-06
0.083996
3.55351e-06
0.0840179
8.50797e-06
0.0839772
2.13132e-05
0.0840911
5.25861e-05
0.0839353
0.000129929
0.0843094
0.000332313
0.0842667
0.000878983
0.0855485
0.00256361
0.0896208
0.00853772
0.109966
0.0339817
0.106668
0.0901134
0.104662
0.0918122
0.10121
0.0918262
0.0992688
0.0893199
0.0991452
0.0883746
0.100133
0.0880512
0.101665
0.0868125
0.0839159
0.10326
0.0840003
1.07069e-09
0.0840003
6.93558e-09
0.0840003
2.36766e-08
0.0840005
6.77997e-08
0.0840001
1.75191e-07
0.0840013
4.52529e-07
0.0839993
1.07981e-06
0.0840053
2.80229e-06
0.0839961
6.47055e-06
0.0840215
1.70448e-05
0.0839934
3.89389e-05
0.084089
0.000103395
0.0840586
0.000244836
0.0844228
0.000658903
0.0850029
0.00181266
0.0878012
0.0057916
0.0997066
0.0219571
0.110125
0.0795272
0.10835
0.0935888
0.105574
0.0946178
0.103228
0.0916943
0.102489
0.0891268
0.102919
0.0876262
0.103891
0.0858438
0.0828709
0.104932
0.0840003
9.6224e-10
0.0840003
5.26782e-09
0.0840003
2.01646e-08
0.0840003
5.14712e-08
0.0840004
1.48427e-07
0.0840005
3.41185e-07
0.0840001
9.29827e-07
0.0840028
2.10106e-06
0.0839964
5.61887e-06
0.0840201
1.28208e-05
0.0839774
3.36753e-05
0.0841022
7.91993e-05
0.0839586
0.000205538
0.0843459
0.000515979
0.0844524
0.00142741
0.0860837
0.00435451
0.0921109
0.0157332
0.109335
0.0621054
0.110268
0.0926532
0.108952
0.0959394
0.106426
0.0942395
0.105487
0.0900784
0.105521
0.087596
0.106032
0.0853266
0.0822673
0.106631
0.0840003
6.62569e-10
0.0840003
4.39676e-09
0.0840004
1.44417e-08
0.0840003
4.28062e-08
0.0840005
1.07938e-07
0.084
2.80133e-07
0.0840017
6.86017e-07
0.0839985
1.70443e-06
0.084009
4.20765e-06
0.0839905
1.02451e-05
0.0840477
2.57108e-05
0.0839615
6.20215e-05
0.0841929
0.000158166
0.0840356
0.000392396
0.0847125
0.00105637
0.0857114
0.00305458
0.0912619
0.0102779
0.114051
0.0390166
0.114485
0.0921724
0.113789
0.0966485
0.111588
0.096454
0.109094
0.0925835
0.108241
0.0884518
0.108241
0.0853273
0.0820959
0.108403
0.0840003
4.90701e-10
0.0840003
3.29527e-09
0.0840003
1.08977e-08
0.0840004
3.21936e-08
0.0840003
8.0751e-08
0.0840005
2.11932e-07
0.0840006
5.04867e-07
0.0840005
1.29112e-06
0.0840039
3.06212e-06
0.0839977
7.71244e-06
0.0840282
1.8506e-05
0.0839863
4.61413e-05
0.0841485
0.000112793
0.084056
0.000283415
0.0846301
0.000729475
0.0853949
0.0020288
0.0894496
0.00635982
0.104892
0.0234081
0.117595
0.0793055
0.117102
0.0971285
0.115047
0.098507
0.112471
0.0951691
0.111239
0.0896863
0.110631
0.0859256
0.0823633
0.110363
0.0840003
3.82433e-10
0.0840003
2.42042e-09
0.0840003
8.34146e-09
0.0840004
2.37242e-08
0.0840003
6.16205e-08
0.0840006
1.56787e-07
0.0840002
3.85728e-07
0.0840015
9.60599e-07
0.0840005
2.33177e-06
0.0840041
5.82358e-06
0.0840071
1.40584e-05
0.0840126
3.5153e-05
0.0840513
8.58702e-05
0.0840908
0.00021611
0.0842944
0.000548374
0.0848049
0.00148642
0.0867015
0.00446146
0.0942177
0.0158087
0.116565
0.0567221
0.119072
0.0945677
0.119037
0.0985102
0.116973
0.0972163
0.114373
0.0922888
0.113201
0.0870927
0.0830429
0.112513
0.0840003
2.69602e-10
0.0840003
1.72799e-09
0.0840003
5.94555e-09
0.0840004
1.68656e-08
0.0840003
4.39281e-08
0.0840005
1.11199e-07
0.0840002
2.71847e-07
0.0840015
6.78867e-07
0.0840002
1.62572e-06
0.0840051
4.06626e-06
0.0840049
9.65897e-06
0.0840178
2.43112e-05
0.0840443
5.77641e-05
0.0841064
0.000146012
0.0842948
0.000358421
0.0848387
0.000941492
0.086621
0.00263393
0.0938732
0.00848345
0.120065
0.030226
0.124358
0.0902379
0.1238
0.0990596
0.121041
0.0999668
0.117875
0.0954485
0.116062
0.0888995
0.0842579
0.114837
0.0840003
1.99368e-10
0.0840003
1.20704e-09
0.0840003
4.33054e-09
0.0840003
1.18001e-08
0.0840003
3.18235e-08
0.0840005
7.83251e-08
0.0840002
1.95573e-07
0.0840013
4.80622e-07
0.0839997
1.16176e-06
0.0840056
2.90057e-06
0.0839981
6.84838e-06
0.0840273
1.74272e-05
0.0839973
4.06939e-05
0.0841228
0.000104757
0.0840894
0.000249762
0.0845567
0.000654205
0.0852157
0.001747
0.0884617
0.00536596
0.0993505
0.019169
0.122638
0.0667818
0.124991
0.0966772
0.125281
0.0996547
0.121622
0.0990945
0.119148
0.0913741
0.08603
0.117374
0.0840003
1.41393e-10
0.0840003
8.56084e-10
0.0840003
3.0449e-09
0.0840003
8.34144e-09
0.0840004
2.25397e-08
0.0840003
5.46476e-08
0.0840004
1.4061e-07
0.0840006
3.31758e-07
0.0840005
8.43209e-07
0.0840028
1.98982e-06
0.0839995
5.01188e-06
0.0840188
1.19473e-05
0.083994
2.97754e-05
0.0841069
7.2287e-05
0.0840144
0.000179782
0.0844647
0.000450739
0.0847102
0.00118533
0.0869302
0.00339771
0.0945567
0.0113078
0.121532
0.0395851
0.127237
0.0909044
0.127832
0.0990482
0.126877
0.100036
0.122676
0.0955766
0.0886192
0.120086
0.0840003
9.51838e-11
0.0840003
6.08051e-10
0.0840003
2.05298e-09
0.0840003
5.93828e-09
0.0840004
1.517e-08
0.0840003
3.85722e-08
0.0840005
9.55653e-08
0.0840003
2.30539e-07
0.0840012
5.79607e-07
0.0840006
1.35859e-06
0.0840039
3.47812e-06
0.0840057
7.99589e-06
0.0840127
2.07975e-05
0.0840447
4.7559e-05
0.0840736
0.000124188
0.0842692
0.000293492
0.0846277
0.000773496
0.0859728
0.00207234
0.09081
0.00639975
0.108004
0.0223306
0.127516
0.0711839
0.129261
0.0972698
0.129475
0.0997996
0.126143
0.098903
0.0915816
0.1232
0.0840003
6.55526e-11
0.0840003
4.03964e-10
0.0840003
1.43126e-09
0.0840003
3.95309e-09
0.0840003
1.05415e-08
0.0840004
2.61528e-08
0.0840004
6.48161e-08
0.0840004
1.60148e-07
0.0840007
3.84729e-07
0.0840005
9.61084e-07
0.0840036
2.27771e-06
0.0839996
5.73869e-06
0.0840231
1.3503e-05
0.0839958
3.42611e-05
0.0841313
8.1055e-05
0.0840312
0.000206453
0.0845851
0.000506916
0.084935
0.00135026
0.0877627
0.0038753
0.0967541
0.0130724
0.124284
0.0434363
0.130843
0.0906289
0.131778
0.098856
0.130644
0.100032
0.095483
0.126745
0.0840003
4.18398e-11
0.0840003
2.83648e-10
0.0840003
9.2426e-10
0.0840003
2.75884e-09
0.0840003
6.84027e-09
0.0840003
1.79333e-08
0.0840004
4.27036e-08
0.0840003
1.07494e-07
0.0840008
2.57487e-07
0.0840002
6.31871e-07
0.0840032
1.53766e-06
0.0840001
3.7042e-06
0.0840165
9.16051e-06
0.0840021
2.17717e-05
0.0840836
5.45433e-05
0.0840524
0.000129784
0.084404
0.000329293
0.0846667
0.000823852
0.08653
0.00226222
0.0924789
0.0069189
0.112351
0.0235002
0.13161
0.0711672
0.132939
0.0974927
0.133767
0.0991803
0.0986825
0.130561
0.0840003
2.81405e-11
0.0840003
1.83723e-10
0.0840003
6.22108e-10
0.0840003
1.79511e-09
0.0840003
4.58382e-09
0.0840003
1.17525e-08
0.0840003
2.82504e-08
0.0840004
7.12109e-08
0.0840004
1.67663e-07
0.0840007
4.24514e-07
0.0840013
9.88507e-07
0.0840013
2.50564e-06
0.0840087
5.85411e-06
0.0840021
1.47569e-05
0.0840559
3.47984e-05
0.0840176
8.71928e-05
0.0842905
0.000210912
0.0843253
0.000533139
0.0854961
0.00138584
0.0880895
0.00399252
0.0984533
0.0132577
0.126695
0.0425911
0.13462
0.0894665
0.135766
0.09802
0.100182
0.134256
0.0840003
1.8812e-11
0.0840003
1.16558e-10
0.0840003
4.10655e-10
0.0840003
1.1356e-09
0.0840003
3.02086e-09
0.0840003
7.42928e-09
0.0840003
1.86017e-08
0.0840004
4.4924e-08
0.0840003
1.10172e-07
0.0840009
2.66495e-07
0.0840003
6.48087e-07
0.0840034
1.57439e-06
0.0840007
3.80017e-06
0.0840166
9.28457e-06
0.0840074
2.23713e-05
0.0840774
5.49287e-05
0.084086
0.000132876
0.0843921
0.000331022
0.0847748
0.000833436
0.0866616
0.00225855
0.0929224
0.00685718
0.112648
0.022782
0.134321
0.0675576
0.135871
0.0964258
0.0980794
0.13794
0.0840003
1.24099e-11
0.0840003
7.34064e-11
0.0840003
2.67048e-10
0.0840003
7.16738e-10
0.0840003
1.95807e-09
0.0840003
4.69079e-09
0.0840003
1.20432e-08
0.0840004
2.83257e-08
0.0840003
7.11513e-08
0.0840006
1.68251e-07
0.0840003
4.15205e-07
0.0840023
9.97978e-07
0.0840003
2.41799e-06
0.0840116
5.90962e-06
0.0840023
1.40875e-05
0.0840606
3.50144e-05
0.0840294
8.28563e-05
0.0842932
0.000208932
0.0843871
0.000507351
0.0855764
0.00133611
0.0883814
0.00374863
0.0990236
0.0122244
0.127882
0.0383364
0.137871
0.0863263
0.0973392
0.138578
0.0840003
7.32818e-12
0.0840003
4.85441e-11
0.0840003
1.60439e-10
0.0840003
4.73175e-10
0.0840003
1.18229e-09
0.0840003
3.05871e-09
0.0840003
7.37172e-09
0.0840003
1.81478e-08
0.0840004
4.42292e-08
0.0840004
1.05748e-07
0.0840006
2.6284e-07
0.0840009
6.13826e-07
0.0840015
1.55468e-06
0.0840052
3.57758e-06
0.0840038
9.14147e-06
0.0840352
2.10049e-05
0.084018
5.36929e-05
0.0842018
0.000125027
0.0841953
0.000319753
0.0850139
0.000783093
0.0863185
0.00212378
0.0924174
0.00630974
0.109837
0.0207029
0.135294
0.0606283
0.093521
0.139056
0.0840003
4.80384e-12
0.0840003
2.84978e-11
0.0840003
1.03401e-10
0.0840003
2.7884e-10
0.0840003
7.56945e-10
0.0840003
1.82447e-09
0.0840003
4.62839e-09
0.0840003
1.09907e-08
0.0840003
2.71779e-08
0.0840004
6.49967e-08
0.0840005
1.57729e-07
0.0840007
3.8328e-07
0.0840014
9.13575e-07
0.0840018
2.24964e-06
0.0840088
5.30363e-06
0.0840057
1.31724e-05
0.0840561
3.0905e-05
0.0840349
7.72791e-05
0.0843124
0.000183043
0.0843715
0.000463604
0.0856588
0.00116522
0.0883128
0.00325343
0.0989694
0.0102112
0.127773
0.0314005
0.0806267
0.140553
0.0840003
2.68831e-12
0.0840003
1.85532e-11
0.0840003
6.04155e-11
0.0840003
1.80427e-10
0.0840003
4.44528e-10
0.0840003
1.17121e-09
0.0840003
2.72955e-09
0.0840003
6.99869e-09
0.0840004
1.61506e-08
0.0840003
4.08878e-08
0.0840005
9.501e-08
0.0840004
2.37191e-07
0.0840014
5.59063e-07
0.0840006
1.37222e-06
0.0840066
3.29265e-06
0.0840031
7.93269e-06
0.0840334
1.94191e-05
0.0840241
4.60693e-05
0.0841641
0.000114973
0.0842248
0.000274174
0.0848611
0.00069986
0.0860468
0.00181321
0.0911061
0.00532689
0.10501
0.01727
0.0507273
0.13465
0.0840003
1.77993e-12
0.0840003
1.05774e-11
0.0840003
3.8416e-11
0.0840003
1.03157e-10
0.0840003
2.80584e-10
0.0840003
6.72729e-10
0.0840003
1.71028e-09
0.0840003
4.03969e-09
0.0840003
9.99812e-09
0.0840004
2.38277e-08
0.0840003
5.77852e-08
0.0840006
1.3981e-07
0.0840005
3.3313e-07
0.0840018
8.17576e-07
0.0840016
1.92286e-06
0.0840072
4.76734e-06
0.0840119
1.11072e-05
0.0840305
2.77982e-05
0.084083
6.45638e-05
0.0841754
0.000162551
0.0845082
0.000387446
0.0852899
0.000996227
0.0879511
0.00265869
0.0970409
0.00811592
0.0248683
0.122807
0.0840003
1.01275e-12
0.0840003
6.57979e-12
0.0840003
2.21132e-11
0.0840003
6.40251e-11
0.0840003
1.62891e-10
0.0840003
4.11746e-10
0.0840003
1.00653e-09
0.0840003
2.432e-09
0.0840003
5.96968e-09
0.0840003
1.4057e-08
0.0840004
3.51138e-08
0.0840004
8.10178e-08
0.0840005
2.04834e-07
0.0840012
4.69023e-07
0.0840008
1.18814e-06
0.0840058
2.72729e-06
0.084002
6.85676e-06
0.0840338
1.59278e-05
0.0840126
3.9627e-05
0.0841833
9.36409e-05
0.0841336
0.000231945
0.0848811
0.000568385
0.0856124
0.00147156
0.0899768
0.00414084
0.0131624
0.101307
0.0840003
5.97849e-13
0.0840003
3.85244e-12
0.0840003
1.31704e-11
0.0840003
3.75226e-11
0.0840003
9.65289e-11
0.0840003
2.43231e-10
0.0840003
5.89301e-10
0.0840003
1.44903e-09
0.0840003
3.45582e-09
0.0840003
8.47307e-09
0.0840003
2.00533e-08
0.0840004
4.92363e-08
0.0840005
1.16417e-07
0.0840005
2.85312e-07
0.0840015
6.76249e-07
0.0840011
1.65102e-06
0.0840081
3.93817e-06
0.0840034
9.5536e-06
0.0840474
2.29328e-05
0.0840224
5.56452e-05
0.084253
0.000134639
0.0842391
0.000330004
0.0852336
0.000824442
0.0867877
0.00217551
0.00639819
0.093765
0.0840003
3.55408e-13
0.0840003
2.18625e-12
0.0840003
7.75972e-12
0.0840003
2.13248e-11
0.0840003
5.6705e-11
0.0840003
1.38535e-10
0.0840003
3.43729e-10
0.0840003
8.29118e-10
0.0840003
1.99476e-09
0.0840003
4.86252e-09
0.0840003
1.1467e-08
0.0840004
2.8284e-08
0.0840004
6.58688e-08
0.0840005
1.63799e-07
0.0840009
3.78786e-07
0.0840011
9.44236e-07
0.0840043
2.1849e-06
0.0840038
5.41527e-06
0.0840264
1.26501e-05
0.0840188
3.10034e-05
0.0841564
7.35527e-05
0.0841409
0.000179253
0.0848178
0.000436863
0.0854396
0.00110216
0.00298031
0.0893032
0.0840003
2.04298e-13
0.0840003
1.26405e-12
0.0840003
4.40372e-12
0.0840003
1.22951e-11
0.0840003
3.21785e-11
0.0840003
7.89826e-11
0.0840003
1.97587e-10
0.0840003
4.63374e-10
0.0840003
1.16315e-09
0.0840003
2.67008e-09
0.0840003
6.73825e-09
0.0840004
1.53991e-08
0.0840003
3.86729e-08
0.0840005
8.91046e-08
0.0840004
2.21159e-07
0.0840015
5.16196e-07
0.084001
1.26011e-06
0.0840065
2.99653e-06
0.0840054
7.17801e-06
0.0840307
1.73782e-05
0.0840415
4.09788e-05
0.0841465
0.000101274
0.0842975
0.00023855
0.0848436
0.000603406
0.00152336
0.0861936
0.0840003
1.07977e-13
0.0840003
7.18697e-13
0.0840003
2.40238e-12
0.0840003
6.98521e-12
0.0840003
1.75227e-11
0.0840003
4.50909e-11
0.0840003
1.05932e-10
0.0840003
2.66819e-10
0.0840003
6.15168e-10
0.0840003
1.53974e-09
0.0840003
3.54946e-09
0.0840003
8.79305e-09
0.0840004
2.04922e-08
0.0840004
5.00174e-08
0.0840006
1.1831e-07
0.0840005
2.84009e-07
0.0840019
6.83232e-07
0.0840015
1.6123e-06
0.0840082
3.9369e-06
0.0840096
9.18025e-06
0.0840376
2.26631e-05
0.0840681
5.2583e-05
0.0841963
0.000131021
0.0844404
0.00030932
0.000786431
0.0852354
0.0840003
6.10976e-14
0.0840003
3.67807e-13
0.0840003
1.30149e-12
0.0840003
3.57301e-12
0.0840003
9.48197e-12
0.0840003
2.28921e-11
0.0840003
5.73052e-11
0.0840003
1.34001e-10
0.0840003
3.30301e-10
0.0840003
7.66731e-10
0.0840003
1.87706e-09
0.0840003
4.36552e-09
0.0840003
1.05905e-08
0.0840004
2.48093e-08
0.0840004
5.93943e-08
0.0840005
1.40922e-07
0.084001
3.31426e-07
0.0840012
7.97227e-07
0.084005
1.84729e-06
0.0840041
4.47727e-06
0.0840308
1.03009e-05
0.0840206
2.5031e-05
0.084181
5.75862e-05
0.0841577
0.000140849
0.000331945
0.0849318
0.0840003
3.02776e-14
0.0840003
1.78628e-13
0.0840003
6.71553e-13
0.0840003
1.75373e-12
0.0840003
4.83252e-12
0.0840003
1.12402e-11
0.0840003
2.86477e-11
0.0840003
6.55691e-11
0.0840003
1.61202e-10
0.0840003
3.73917e-10
0.0840003
8.90009e-10
0.0840003
2.11208e-09
0.0840003
4.8758e-09
0.0840003
1.18315e-08
0.0840004
2.65913e-08
0.0840004
6.55512e-08
0.0840009
1.44806e-07
0.0840004
3.58927e-07
0.0840036
7.81912e-07
0.0840011
1.9404e-06
0.0840184
4.1969e-06
0.0840069
1.03013e-05
0.0840932
2.23449e-05
0.0840689
5.38562e-05
0.000120111
0.0844409
0.0840003
1.30737e-14
0.0840003
9.61807e-14
0.0840003
2.93813e-13
0.0840003
9.28168e-13
0.0840003
2.13127e-12
0.0840003
5.80375e-12
0.0840003
1.2682e-11
0.0840003
3.28677e-11
0.0840003
7.18993e-11
0.0840003
1.78566e-10
0.0840003
4.03212e-10
0.0840003
9.5102e-10
0.0840003
2.23875e-09
0.0840003
4.99466e-09
0.0840004
1.22966e-08
0.0840003
2.58843e-08
0.0840006
6.62926e-08
0.0840004
1.32042e-07
0.0840013
3.50169e-07
0.0840017
6.53565e-07
0.0840033
1.79414e-06
0.0840116
3.1357e-06
0.0840101
8.6648e-06
0.0840648
1.4765e-05
3.84329e-05
0.0840747
0.0840003
6.22831e-15
0.0840003
4.1369e-14
0.0840003
1.43307e-13
0.0840003
3.94039e-13
0.0840003
1.0385e-12
0.0840003
2.47219e-12
0.0840003
6.05273e-12
0.0840003
1.39428e-11
0.0840003
3.33248e-11
0.0840003
7.56656e-11
0.0840003
1.78383e-10
0.0840003
4.06241e-10
0.0840003
9.3846e-10
0.0840003
2.14136e-09
0.0840004
4.88268e-09
0.0840003
1.11278e-08
0.0840006
2.48928e-08
0.0839999
5.65133e-08
0.0840019
1.24615e-07
0.0839975
2.78052e-07
0.0840091
5.99228e-07
0.0839843
1.30974e-06
0.0840421
2.73147e-06
0.0839238
5.76549e-06
1.15036e-05
0.0841142
0.0840003
5.07472e-15
0.0840003
1.50693e-14
0.0840003
8.0492e-14
0.0840003
1.39373e-13
0.0840003
5.51772e-13
0.0840003
8.87716e-13
0.0840003
3.03919e-12
0.0840003
5.2592e-12
0.0840003
1.53414e-11
0.0840003
3.15832e-11
0.0840003
7.32294e-11
0.0840003
1.8701e-10
0.0840003
3.35822e-10
0.0840003
1.09762e-09
0.0840004
1.51905e-09
0.0840003
6.24522e-09
0.0840005
7.06181e-09
0.0839998
3.49672e-08
0.0840016
3.30682e-08
0.083997
1.91353e-07
0.0840076
1.307e-07
0.0839816
9.78224e-07
0.0840341
4.26231e-07
0.0839091
4.38945e-06
2.34456e-06
0.0840747
0.0840003
2.5327e-16
0.0840003
1.36776e-14
0.0840003
1.91904e-14
0.0840003
1.30203e-13
0.0840003
1.38444e-13
0.0840003
8.28083e-13
0.0840003
6.10733e-13
0.0840003
4.8358e-12
0.0840003
1.94882e-12
0.0840003
2.66038e-11
0.0840003
9.4635e-12
0.0840003
1.39031e-10
0.0840003
7.98442e-11
0.0840003
6.66598e-10
0.0840003
6.70728e-10
0.0840003
2.99531e-09
0.0840004
5.51283e-09
0.0840002
1.19509e-08
0.0840001
4.26639e-08
0.0840003
3.38909e-08
0.0839966
3.16002e-07
0.0840038
-1.80214e-08
0.0839716
2.10015e-06
0.0840141
-3.61631e-07
9.79571e-06
0.0838765
0.0840003
3.97252e-16
0.0840003
4.26113e-15
0.0840003
1.47228e-14
0.0840003
5.02684e-14
0.0840003
9.11808e-14
0.0840003
2.90742e-13
0.0840003
6.1925e-13
0.0840003
1.31105e-12
0.0840003
4.28141e-12
0.0840003
5.48647e-12
0.0840003
2.77566e-11
0.0840003
2.07919e-11
0.0840003
1.74729e-10
0.0840003
3.72246e-11
0.0840003
1.11487e-09
0.0840004
-2.41324e-10
0.0840001
6.56944e-09
0.0840007
-2.49249e-09
0.0839994
3.77945e-08
0.0840011
-5.89427e-09
0.0839973
1.79473e-07
0.0839971
1.10954e-07
0.0839898
8.46368e-07
0.0839724
1.1026e-06
4.34024e-06
0.0839321
0.0840003
1.11499e-15
0.0840003
2.30285e-16
0.0840003
9.02143e-15
0.0840003
8.13412e-15
0.0840003
6.47572e-14
0.0840003
4.89181e-14
0.0840003
4.44529e-13
0.0840003
8.61869e-14
0.0840003
2.9502e-12
0.0840003
-7.06719e-13
0.0840003
1.84565e-11
0.0840003
-9.4938e-12
0.0840003
1.08803e-10
0.0840003
-6.14674e-11
0.0840003
5.54301e-10
0.0840003
-4.98253e-11
0.0840003
2.4477e-09
0.0840001
2.47084e-09
0.0840007
7.38888e-09
0.0839979
3.32113e-08
0.0840043
3.59092e-09
0.0839831
2.70006e-07
0.0840243
-6.62729e-08
0.0839084
1.7815e-06
7.61541e-07
0.0840431
0.0840003
0.0840003
0.0840003
0.0840003
0.0840003
0.0840003
0.0840003
0.0840003
0.0840003
0.0840003
0.0840003
0.0840003
0.0840003
0.0840003
0.0840003
0.0840003
0.0840004
0.0839999
0.0840013
0.083997
0.0840069
0.0839795
0.084035
0.0838942
0.0840717
0.0448914
0.0418715
0.0249734
0.0199078
0.0135211
0.0114459
-0.0031915
0.0166834
-0.0108366
0.00761076
-0.0166919
0.00581391
-0.0205071
0.00376217
-0.0221605
0.00159633
-0.0226596
0.000440705
-0.0237323
0.00101406
-0.0251491
0.00135594
-0.0264879
0.00127984
-0.0274846
0.000939425
-0.0282353
0.000697858
-0.0290097
0.000726617
-0.0298014
0.000749872
-0.0305657
0.000728581
-0.0312633
0.000668385
-0.0318609
0.000570215
-0.0323241
0.000442447
-0.0326499
0.000308382
-0.0329027
0.000240743
-0.0332888
0.000374628
-0.0337021
0.000399586
-0.0340406
0.000324115
-0.0342782
0.000213848
-0.0343427
2.76897e-05
-0.0341059
-0.00028462
-0.0334359
-0.000735609
-0.0322911
-0.0012141
-0.0307376
-0.00163357
-0.0288402
-0.0019794
-0.0266805
-0.00224747
-0.0242816
-0.00248847
-0.021783
-0.00259211
-0.0192257
-0.00265231
-0.0166599
-0.00266552
-0.0140766
-0.00268605
-0.0114282
-0.00275615
-0.00880541
-0.00273889
-0.00622761
-0.00269832
-0.00365567
-0.00270076
-0.00100204
-0.00279026
0.00151052
-0.00265498
0.00383304
-0.00247172
0.00605449
-0.00237991
0.00817691
-0.00228896
0.0102057
-0.00220233
0.0121488
-0.00212182
0.0140024
-0.00204053
0.0157706
-0.00195931
0.0174575
-0.00188255
0.0190644
-0.0018069
0.0206017
-0.00173591
0.0220732
-0.00166739
0.0234792
-0.00159938
0.0248138
-0.00152732
0.0260859
-0.00146041
0.02731
-0.00140491
0.0284942
-0.00135253
0.0296328
-0.00129471
0.0307308
-0.00123845
0.0317886
-0.00118629
0.0328134
-0.00113655
0.0338044
-0.00109004
0.0347665
-0.00104374
0.0357002
-0.00100084
0.0366034
-0.000957324
0.0374826
-0.000916649
0.0383302
-0.000875677
0.0391521
-0.000836406
0.0399458
-0.000797394
0.0407096
-0.000759591
0.0414441
-0.000721969
0.0421518
-0.000685635
0.0428283
-0.000649641
0.0434745
-0.000614647
0.0440915
-0.000580236
0.0446802
-0.000546852
0.0452384
-0.000514093
0.0457669
-0.000482254
0.0462671
-0.000451049
0.0467392
-0.000420635
0.0471825
-0.000390662
0.0475971
-0.000361291
0.0479841
-0.000332282
0.0483436
-0.000303853
0.0486749
-0.000275768
0.0489778
-0.000248181
0.0492537
-0.000220866
0.0495025
-0.000193771
0.0497237
-0.000166421
0.0499151
-0.00013838
0.050076
-0.000108879
0.0502046
-7.70382e-05
0.0502974
-4.16206e-05
0.0503518
-2.72243e-06
0.0503614
4.05095e-05
0.0503185
9.23032e-05
0.00015243
0.0610721
0.0622834
0.045568
0.0353985
0.0343187
0.0226824
0.0290397
0.0219426
0.0195703
0.0170157
0.0128479
0.012473
0.00675053
0.00977473
0.000306728
0.00795461
-0.00581057
0.00648078
-0.0103892
0.00553206
-0.0135188
0.00442395
-0.0156347
0.00333211
-0.0168929
0.00214255
-0.0176221
0.00136953
-0.018539
0.00159569
-0.0196045
0.00176827
-0.0206517
0.00173757
-0.0215834
0.00157231
-0.0223861
0.0013385
-0.0230557
0.0010858
-0.023637
0.00086539
-0.0241249
0.000706408
-0.0245223
0.000758807
-0.0249278
0.000787958
-0.0251657
0.00054499
-0.0251498
0.000177303
-0.024836
-0.000316069
-0.0241174
-0.00104636
-0.0228515
-0.00205542
-0.0210849
-0.00304393
-0.0189464
-0.00383784
-0.0165287
-0.00446874
-0.0139214
-0.00492644
-0.0111446
-0.00534322
-0.00836779
-0.00545686
-0.00560326
-0.00550925
-0.00283515
-0.00553169
6.57058e-05
-0.00568898
0.00271767
-0.00552265
0.005272
-0.0054138
0.00777992
-0.00533655
0.0101867
-0.005247
0.0124302
-0.00518223
0.0146582