/*--------------------------------*- C++ -*----------------------------------*\
  =========                 |
  \\      /  F ield         | OpenFOAM: The Open Source CFD Toolbox
   \\    /   O peration     | Website:  https://openfoam.org
    \\  /    A nd           | Version:  13
     \\/     M anipulation  |
\*---------------------------------------------------------------------------*/
FoamFile
{
    format      ascii;
    class       volVectorField;
    location    "6";
    object      U;
}
// * * * * * * * * * * * * * * * * * * * * * * * * * * * * * * * * * * * * * //

dimensions      [0 1 -1 0 0 0 0];

internalField   nonuniform List<vector> 
5250
(
(3 1.04134e-08 0)
(2.99999 1.13828e-07 0)
(2.99996 1.74145e-07 0)
(2.99991 1.06219e-06 0)
(2.99976 1.66409e-06 0)
(2.99942 5.31349e-06 0)
(2.99856 1.4203e-05 0)
(2.99647 2.65784e-05 0)
(2.99121 9.10037e-05 0)
(2.97807 0.000167229 0)
(2.94373 0.000507292 0)
(2.84919 0.00120669 0)
(2.57381 0.00345952 0)
(1.77494 0.00977071 0)
(0.817146 0.0258918 0)
(0.468442 0.0242299 0)
(0.538126 0.0244163 0)
(0.554413 0.0262434 0)
(0.500271 0.0280674 0)
(0.410999 0.0298819 0)
(0.327468 0.0320766 0)
(0.2594 0.0346339 0)
(0.191061 0.0372641 0)
(0.113943 0.040251 0)
(0.0491035 0.0443042 0)
(3 2.59985e-08 0)
(2.99999 2.71341e-07 0)
(2.99996 6.75304e-07 0)
(2.99991 2.63505e-06 0)
(2.99977 5.14729e-06 0)
(2.99943 1.75503e-05 0)
(2.99858 3.21916e-05 0)
(2.99653 0.000108578 0)
(2.99133 0.000204969 0)
(2.97841 0.000628673 0)
(2.94462 0.0013998 0)
(2.85157 0.00389649 0)
(2.58104 0.0105303 0)
(1.79272 0.0304643 0)
(0.827385 0.0788737 0)
(0.464693 0.069867 0)
(0.537486 0.0672643 0)
(0.554965 0.070227 0)
(0.500549 0.0731737 0)
(0.411352 0.0761693 0)
(0.32792 0.0796669 0)
(0.25937 0.0834792 0)
(0.190109 0.0868923 0)
(0.111775 0.0900792 0)
(0.0463914 0.0928844 0)
(3 4.30168e-08 0)
(2.99999 4.32245e-07 0)
(2.99996 1.12347e-06 0)
(2.99991 4.33614e-06 0)
(2.99978 8.38856e-06 0)
(2.99944 2.9669e-05 0)
(2.99864 5.20339e-05 0)
(2.99661 0.000184259 0)
(2.99164 0.000336672 0)
(2.97907 0.0010671 0)
(2.94645 0.00235416 0)
(2.85681 0.00660151 0)
(2.59595 0.0178789 0)
(1.8332 0.0519312 0)
(0.851509 0.136067 0)
(0.460356 0.118496 0)
(0.539764 0.112821 0)
(0.560145 0.117955 0)
(0.505694 0.123528 0)
(0.416971 0.129804 0)
(0.333821 0.136475 0)
(0.264674 0.143462 0)
(0.194191 0.15001 0)
(0.114131 0.15575 0)
(0.0465456 0.159278 0)
(3 9.54303e-08 0)
(2.99999 5.18736e-07 0)
(2.99997 1.97778e-06 0)
(2.99991 5.09119e-06 0)
(2.99979 1.46465e-05 0)
(2.99947 3.36215e-05 0)
(2.99871 9.33483e-05 0)
(2.99677 0.000207915 0)
(2.99206 0.000569666 0)
(2.98009 0.0013145 0)
(2.94924 0.00348754 0)
(2.86452 0.00891742 0)
(2.61899 0.0249203 0)
(1.89519 0.0718878 0)
(0.889844 0.192107 0)
(0.456173 0.166943 0)
(0.545607 0.157985 0)
(0.5707 0.165211 0)
(0.516572 0.173528 0)
(0.428605 0.183558 0)
(0.345534 0.193791 0)
(0.275624 0.204429 0)
(0.203512 0.214827 0)
(0.120542 0.223925 0)
(0.0488635 0.228709 0)
(3 1.08691e-07 0)
(2.99999 6.72658e-07 0)
(2.99997 2.34516e-06 0)
(2.99992 6.4978e-06 0)
(2.9998 1.75307e-05 0)
(2.99951 4.26218e-05 0)
(2.99878 0.000111824 0)
(2.99701 0.000264055 0)
(2.99256 0.000688517 0)
(2.9815 0.00165629 0)
(2.95279 0.0042738 0)
(2.87469 0.0110733 0)
(2.64882 0.0307527 0)
(1.97902 0.0889148 0)
(0.943748 0.243727 0)
(0.456281 0.215181 0)
(0.556759 0.203092 0)
(0.587614 0.211748 0)
(0.533987 0.222508 0)
(0.446926 0.236572 0)
(0.363588 0.250831 0)
(0.292514 0.26576 0)
(0.218181 0.28086 0)
(0.131011 0.294448 0)
(0.0532923 0.301505 0)
(3 1.16729e-07 0)
(2.99999 7.48008e-07 0)
(2.99997 2.54606e-06 0)
(2.99993 7.33958e-06 0)
(2.99982 1.91023e-05 0)
(2.99955 4.89201e-05 0)
(2.99889 0.000122034 0)
(2.99725 0.000304991 0)
(2.99322 0.000758997 0)
(2.98308 0.00189748 0)
(2.95709 0.00480388 0)
(2.88662 0.0125606 0)
(2.68443 0.0347314 0)
(2.08159 0.100916 0)
(1.01623 0.286527 0)
(0.468733 0.265692 0)
(0.576373 0.252257 0)
(0.612773 0.260408 0)
(0.55995 0.272327 0)
(0.473978 0.290332 0)
(0.389769 0.309116 0)
(0.317018 0.329302 0)
(0.239845 0.350615 0)
(0.146971 0.370895 0)
(0.0605861 0.382618 0)
(3 1.19425e-07 0)
(2.99999 7.37097e-07 0)
(2.99997 2.59142e-06 0)
(2.99993 7.28462e-06 0)
(2.99983 1.92877e-05 0)
(2.9996 4.89606e-05 0)
(2.999 0.000122244 0)
(2.99754 0.000306045 0)
(2.99389 0.000757217 0)
(2.98487 0.00189828 0)
(2.96169 0.00478199 0)
(2.8997 0.0124632 0)
(2.7232 0.034204 0)
(2.20017 0.0991054 0)
(1.11741 0.290855 0)
(0.513978 0.30625 0)
(0.61292 0.303166 0)
(0.650108 0.310557 0)
(0.597952 0.323302 0)
(0.513143 0.345527 0)
(0.427175 0.369736 0)
(0.351851 0.396433 0)
(0.271196 0.425895 0)
(0.17129 0.456272 0)
(0.0727427 0.477688 0)
(3 1.07725e-07 0)
(2.99999 6.88209e-07 0)
(2.99998 2.34533e-06 0)
(2.99994 6.73742e-06 0)
(2.99985 1.75071e-05 0)
(2.99963 4.46467e-05 0)
(2.99911 0.000110824 0)
(2.99778 0.000275791 0)
(2.99455 0.000681706 0)
(2.98643 0.00169063 0)
(2.96591 0.0042405 0)
(2.91121 0.010892 0)
(2.75713 0.0294243 0)
(2.30249 0.0838382 0)
(1.22755 0.249551 0)
(0.56145 0.337398 0)
(0.641848 0.359764 0)
(0.679886 0.361942 0)
(0.635308 0.375258 0)
(0.556997 0.401662 0)
(0.472413 0.432655 0)
(0.396579 0.467671 0)
(0.314178 0.507903 0)
(0.208226 0.553579 0)
(0.0935968 0.595667 0)
(3 1.05849e-07 0)
(2.99999 6.24465e-07 0)
(2.99998 2.25201e-06 0)
(2.99995 6.07246e-06 0)
(2.99987 1.66442e-05 0)
(2.99967 4.02131e-05 0)
(2.99919 0.000104378 0)
(2.99801 0.000246703 0)
(2.99507 0.00063416 0)
(2.98783 0.00150809 0)
(2.96936 0.00385193 0)
(2.92068 0.00965243 0)
(2.78382 0.0258548 0)
(2.38096 0.0722961 0)
(1.34724 0.214055 0)
(0.621126 0.381859 0)
(0.654617 0.415831 0)
(0.68737 0.412597 0)
(0.662369 0.427963 0)
(0.598308 0.456447 0)
(0.521381 0.495817 0)
(0.449808 0.541084 0)
(0.370972 0.594947 0)
(0.266018 0.665412 0)
(0.131608 0.751595 0)
(3 8.99942e-08 0)
(2.99999 6.59343e-07 0)
(2.99998 1.99749e-06 0)
(2.99995 6.428e-06 0)
(2.99988 1.49547e-05 0)
(2.99971 4.18193e-05 0)
(2.99928 9.55532e-05 0)
(2.99822 0.000252608 0)
(2.9956 0.00059258 0)
(2.98911 0.00151384 0)
(2.97269 0.00367953 0)
(2.92952 0.00945709 0)
(2.80905 0.0248826 0)
(2.45555 0.0696432 0)
(1.49718 0.204537 0)
(0.711725 0.431727 0)
(0.66074 0.45558 0)
(0.690174 0.455025 0)
(0.683443 0.475451 0)
(0.636477 0.506971 0)
(0.57375 0.554833 0)
(0.511632 0.611285 0)
(0.446888 0.685314 0)
(0.361204 0.799213 0)
(0.203336 1.00561 0)
(3 9.59767e-08 0)
(2.99999 6.19734e-07 0)
(2.99998 2.11895e-06 0)
(2.99996 6.06347e-06 0)
(2.9999 1.57798e-05 0)
(2.99974 4.0463e-05 0)
(2.99936 9.90888e-05 0)
(2.99843 0.000251082 0)
(2.99612 0.000603407 0)
(2.99041 0.0015326 0)
(2.97599 0.00371908 0)
(2.93831 0.0095721 0)
(2.83397 0.0249796 0)
(2.52938 0.0698676 0)
(1.66891 0.203258 0)
(0.823882 0.478978 0)
(0.666989 0.487814 0)
(0.698178 0.490012 0)
(0.706201 0.513347 0)
(0.675174 0.550746 0)
(0.629534 0.604358 0)
(0.585907 0.671849 0)
(0.554951 0.765075 0)
(0.552276 0.908613 0)
(0.589746 1.15198 0)
(3 1.0384e-07 0)
(2.99999 6.01276e-07 0)
(2.99999 2.24798e-06 0)
(2.99996 5.87202e-06 0)
(2.99991 1.6643e-05 0)
(2.99978 3.9598e-05 0)
(2.99945 0.000104154 0)
(2.99864 0.000248837 0)
(2.99667 0.000630195 0)
(2.99171 0.00154273 0)
(2.97939 0.0038461 0)
(2.94725 0.00972427 0)
(2.85924 0.0254488 0)
(2.60406 0.070672 0)
(1.86173 0.204617 0)
(0.958159 0.522712 0)
(0.679625 0.520636 0)
(0.713187 0.521707 0)
(0.734359 0.543644 0)
(0.717414 0.586253 0)
(0.688933 0.643489 0)
(0.668214 0.718568 0)
(0.672707 0.82001 0)
(0.730236 0.959766 0)
(0.8712 1.14219 0)
(3 9.95435e-08 0)
(3 6.13394e-07 0)
(2.99999 2.14969e-06 0)
(2.99997 6.00135e-06 0)
(2.99992 1.60041e-05 0)
(2.99981 4.00289e-05 0)
(2.99954 0.000101416 0)
(2.99887 0.00024931 0)
(2.9972 0.000624773 0)
(2.99309 0.0015423 0)
(2.98279 0.00386603 0)
(2.95635 0.00975359 0)
(2.8847 0.0255199 0)
(2.67942 0.0704706 0)
(2.07118 0.204616 0)
(1.11751 0.559444 0)
(0.713013 0.562272 0)
(0.742182 0.561414 0)
(0.772059 0.573925 0)
(0.766901 0.615681 0)
(0.752044 0.674235 0)
(0.751806 0.749715 0)
(0.781494 0.846041 0)
(0.863555 0.962192 0)
(1.02258 1.07537 0)
(3 8.41465e-08 0)
(3 5.72681e-07 0)
(2.99999 1.86074e-06 0)
(2.99997 5.60767e-06 0)
(2.99994 1.39073e-05 0)
(2.99985 3.72043e-05 0)
(2.99963 8.81408e-05 0)
(2.99908 0.000230313 0)
(2.99775 0.000545023 0)
(2.99441 0.0014057 0)
(2.98623 0.00339242 0)
(2.96531 0.00870023 0)
(2.90997 0.0222602 0)
(2.75455 0.0608836 0)
(2.29904 0.175167 0)
(1.33049 0.510492 0)
(0.802824 0.588504 0)
(0.799425 0.605374 0)
(0.823931 0.610948 0)
(0.827814 0.644706 0)
(0.820543 0.698927 0)
(0.831411 0.76802 0)
(0.874078 0.850443 0)
(0.96125 0.940614 0)
(1.11078 1.01356 0)
(3 7.75929e-08 0)
(3 4.50831e-07 0)
(2.99999 1.64597e-06 0)
(2.99998 4.38275e-06 0)
(2.99995 1.21838e-05 0)
(2.99988 2.89528e-05 0)
(2.9997 7.67248e-05 0)
(2.99925 0.000178331 0)
(2.99818 0.000465892 0)
(2.99546 0.001088 0)
(2.98888 0.00280654 0)
(2.97207 0.00674454 0)
(2.92825 0.0174813 0)
(2.80664 0.0459087 0)
(2.45346 0.12926 0)
(1.54414 0.387131 0)
(0.895035 0.616052 0)
(0.84613 0.648908 0)
(0.866753 0.657348 0)
(0.884107 0.677145 0)
(0.886677 0.720966 0)
(0.904023 0.779426 0)
(0.951298 0.84635 0)
(1.03578 0.914858 0)
(1.1692 0.966364 0)
(3 6.31588e-08 0)
(3 3.97987e-07 0)
(2.99999 1.35742e-06 0)
(2.99998 3.88708e-06 0)
(2.99996 1.00766e-05 0)
(2.9999 2.546e-05 0)
(2.99975 6.37695e-05 0)
(2.9994 0.000154553 0)
(2.99851 0.000389447 0)
(2.99636 0.000932289 0)
(2.99094 0.00235582 0)
(2.97753 0.00572633 0)
(2.94249 0.0145705 0)
(2.8464 0.0379306 0)
(2.56916 0.104927 0)
(1.78984 0.308577 0)
(1.02772 0.65876 0)
(0.875978 0.686226 0)
(0.893864 0.697507 0)
(0.923446 0.706522 0)
(0.942517 0.739829 0)
(0.967055 0.78764 0)
(1.01565 0.841074 0)
(1.09491 0.893089 0)
(1.21187 0.931164 0)
(3 5.46531e-08 0)
(3 3.43073e-07 0)
(2.99999 1.20116e-06 0)
(2.99999 3.35905e-06 0)
(2.99997 8.90074e-06 0)
(2.99992 2.24675e-05 0)
(2.99981 5.56693e-05 0)
(2.99952 0.000139275 0)
(2.99883 0.000338054 0)
(2.9971 0.000850357 0)
(2.99287 0.00206371 0)
(2.98224 0.00519942 0)
(2.95504 0.0129714 0)
(2.88134 0.0339088 0)
(2.67082 0.0930136 0)
(2.05363 0.270365 0)
(1.20653 0.684731 0)
(0.915033 0.717573 0)
(0.922398 0.727666 0)
(0.956879 0.730597 0)
(0.99026 0.753552 0)
(1.02163 0.79262 0)
(1.07005 0.835979 0)
(1.14331 0.87616 0)
(1.24554 0.904781 0)
(3 4.73877e-08 0)
(3 2.86885e-07 0)
(3 1.01843e-06 0)
(2.99999 2.79702e-06 0)
(2.99998 7.56813e-06 0)
(2.99994 1.85647e-05 0)
(2.99985 4.7801e-05 0)
(2.99964 0.000114886 0)
(2.9991 0.000292112 0)
(2.9978 0.000702299 0)
(2.99457 0.00178133 0)
(2.98662 0.00432141 0)
(2.96639 0.0110115 0)
(2.9131 0.0281227 0)
(2.76431 0.0765192 0)
(2.32893 0.219763 0)
(1.45377 0.620777 0)
(1.00739 0.730418 0)
(0.973999 0.750245 0)
(0.996761 0.755857 0)
(1.03653 0.767975 0)
(1.07291 0.797455 0)
(1.11901 0.832069 0)
(1.18515 0.863356 0)
(1.27431 0.884994 0)
(3 3.49836e-08 0)
(3 2.39598e-07 0)
(3 7.74604e-07 0)
(2.99999 2.33175e-06 0)
(2.99998 5.75823e-06 0)
(2.99995 1.53406e-05 0)
(2.99989 3.61716e-05 0)
(2.99972 9.3881e-05 0)
(2.99932 0.000220538 0)
(2.99834 0.000565233 0)
(2.99589 0.00133996 0)
(2.98993 0.00340107 0)
(2.97487 0.00824672 0)
(2.93587 0.0211777 0)
(2.82912 0.0554639 0)
(2.52166 0.155591 0)
(1.7231 0.463047 0)
(1.12086 0.738569 0)
(1.02737 0.771974 0)
(1.03779 0.785655 0)
(1.07721 0.788701 0)
(1.11874 0.806478 0)
(1.16315 0.831606 0)
(1.22252 0.85506 0)
(1.30042 0.87095 0)
(3 3.00562e-08 0)
(3 1.80807e-07 0)
(3 6.49661e-07 0)
(2.99999 1.76225e-06 0)
(2.99999 4.7931e-06 0)
(2.99996 1.17241e-05 0)
(2.99992 2.97454e-05 0)
(2.99979 7.23628e-05 0)
(2.99949 0.000178736 0)
(2.99873 0.000439821 0)
(2.99693 0.00106954 0)
(2.99237 0.00266799 0)
(2.98119 0.00651056 0)
(2.95227 0.0164551 0)
(2.87436 0.0425021 0)
(2.65252 0.116488 0)
(2.01705 0.342747 0)
(1.28444 0.755866 0)
(1.07228 0.801521 0)
(1.07077 0.815431 0)
(1.10728 0.813348 0)
(1.15564 0.817047 0)
(1.20125 0.832995 0)
(1.25576 0.85004 0)
(1.32452 0.861418 0)
(3 2.4172e-08 0)
(3 1.43617e-07 0)
(3 5.13406e-07 0)
(3 1.40039e-06 0)
(2.99999 3.80037e-06 0)
(2.99997 9.22982e-06 0)
(2.99994 2.39671e-05 0)
(2.99985 5.65439e-05 0)
(2.99962 0.000145862 0)
(2.99908 0.000342572 0)
(2.99774 0.000880806 0)
(2.99447 0.00208703 0)
(2.98635 0.00533012 0)
(2.96582 0.0130182 0)
(2.9116 0.0339046 0)
(2.76087 0.090971 0)
(2.31884 0.262756 0)
(1.52619 0.696991 0)
(1.15548 0.81428 0)
(1.11758 0.833604 0)
(1.13833 0.836023 0)
(1.18646 0.83034 0)
(1.23609 0.836681 0)
(1.28713 0.847664 0)
(1.34806 0.855364 0)
(3 1.71305e-08 0)
(3 1.14064e-07 0)
(3 3.74782e-07 0)
(3 1.10937e-06 0)
(2.99999 2.78713e-06 0)
(2.99998 7.27408e-06 0)
(2.99995 1.75799e-05 0)
(2.99989 4.42753e-05 0)
(2.99973 0.000107222 0)
(2.99935 0.000265162 0)
(2.99838 0.0006507 0)
(2.99608 0.00158972 0)
(2.9903 0.00394797 0)
(2.97606 0.00969208 0)
(2.93907 0.0246689 0)
(2.83893 0.0647316 0)
(2.55179 0.1816 0)
(1.8228 0.529221 0)
(1.27901 0.810053 0)
(1.17269 0.843858 0)
(1.17546 0.856042 0)
(1.21538 0.84906 0)
(1.26682 0.844864 0)
(1.31655 0.848674 0)
(1.37148 0.85262 0)
(3 1.29689e-08 0)
(3 8.47542e-08 0)
(3 2.84808e-07 0)
(3 8.26528e-07 0)
(2.99999 2.10544e-06 0)
(2.99999 5.44681e-06 0)
(2.99997 1.31613e-05 0)
(2.99992 3.32479e-05 0)
(2.99981 7.96574e-05 0)
(2.99953 0.000199718 0)
(2.99885 0.000480106 0)
(2.99722 0.00119529 0)
(2.9931 0.00290815 0)
(2.98306 0.00721798 0)
(2.95727 0.0179877 0)
(2.88859 0.0464508 0)
(2.69531 0.126233 0)
(2.13918 0.370724 0)
(1.45271 0.808336 0)
(1.22574 0.867024 0)
(1.21174 0.876562 0)
(1.23927 0.87007 0)
(1.29048 0.857702 0)
(1.34243 0.854149 0)
(1.39428 0.85378 0)
(3 9.6863e-09 0)
(3 6.14744e-08 0)
(3 2.11325e-07 0)
(3 5.99647e-07 0)
(3 1.55892e-06 0)
(2.99999 3.95608e-06 0)
(2.99998 9.70904e-06 0)
(2.99995 2.41986e-05 0)
(2.99987 5.84225e-05 0)
(2.99968 0.000145939 0)
(2.99921 0.000349956 0)
(2.99811 0.000875916 0)
(2.99532 0.00211041 0)
(2.98862 0.00527353 0)
(2.97167 0.0129757 0)
(2.92796 0.033185 0)
(2.80938 0.088274 0)
(2.46456 0.253319 0)
(1.73412 0.677834 0)
(1.32972 0.856045 0)
(1.26587 0.881542 0)
(1.27409 0.886235 0)
(1.3165 0.873467 0)
(1.36816 0.863756 0)
(1.41745 0.859028 0)
(3 6.95243e-09 0)
(3 4.33728e-08 0)
(3 1.51434e-07 0)
(3 4.21358e-07 0)
(3 1.11333e-06 0)
(2.99999 2.78144e-06 0)
(2.99998 6.85944e-06 0)
(2.99996 1.69969e-05 0)
(2.99991 4.08431e-05 0)
(2.99978 0.000101946 0)
(2.99946 0.000241251 0)
(2.99868 0.000608766 0)
(2.99676 0.00143067 0)
(2.99211 0.0036183 0)
(2.98048 0.00864569 0)
(2.95089 0.021931 0)
(2.87178 0.0560801 0)
(2.64814 0.153765 0)
(2.04182 0.446917 0)
(1.46399 0.829172 0)
(1.31562 0.887576 0)
(1.3079 0.901485 0)
(1.33906 0.892982 0)
(1.39003 0.876287 0)
(1.43926 0.867214 0)
(3 5.05358e-09 0)
(3 3.05124e-08 0)
(3 1.08792e-07 0)
(3 2.96418e-07 0)
(3 8.00441e-07 0)
(3 1.95551e-06 0)
(2.99999 4.94829e-06 0)
(2.99997 1.19459e-05 0)
(2.99994 2.9515e-05 0)
(2.99985 7.19298e-05 0)
(2.99963 0.000174606 0)
(2.9991 0.000431904 0)
(2.99782 0.00103586 0)
(2.99463 0.00259191 0)
(2.98689 0.00623772 0)
(2.96726 0.0157085 0)
(2.91611 0.0396594 0)
(2.77537 0.106341 0)
(2.3664 0.305767 0)
(1.69502 0.749922 0)
(1.39175 0.888058 0)
(1.34882 0.911501 0)
(1.36247 0.912893 0)
(1.40768 0.894985 0)
(1.4593 0.879203 0)
(3 3.51125e-09 0)
(3 2.16343e-08 0)
(3 7.50307e-08 0)
(3 2.1017e-07 0)
(3 5.53504e-07 0)
(3 1.37033e-06 0)
(2.99999 3.46555e-06 0)
(2.99998 8.26185e-06 0)
(2.99996 2.08789e-05 0)
(2.9999 4.91745e-05 0)
(2.99976 0.000124591 0)
(2.9994 0.000292605 0)
(2.99856 0.000741203 0)
(2.99645 0.00175193 0)
(2.9914 0.00441646 0)
(2.97869 0.01066 0)
(2.94649 0.027103 0)
(2.86047 0.0702387 0)
(2.6154 0.195743 0)
(2.0031 0.552844 0)
(1.51972 0.864568 0)
(1.40166 0.91586 0)
(1.39451 0.927994 0)
(1.42505 0.916849 0)
(1.47471 0.894011 0)
(3 2.37552e-09 0)
(3 1.49231e-08 0)
(3 5.11835e-08 0)
(3 1.45092e-07 0)
(3 3.76809e-07 0)
(3 9.48335e-07 0)
(3 2.34912e-06 0)
(2.99999 5.72139e-06 0)
(2.99997 1.4119e-05 0)
(2.99993 3.3957e-05 0)
(2.99984 8.42379e-05 0)
(2.99961 0.000200911 0)
(2.99904 0.000501349 0)
(2.99769 0.00119357 0)
(2.99431 0.00298149 0)
(2.98613 0.00719325 0)
(2.96541 0.0179887 0)
(2.91147 0.0456073 0)
(2.76298 0.122142 0)
(2.33741 0.353229 0)
(1.72738 0.789183 0)
(1.47121 0.912585 0)
(1.43287 0.935043 0)
(1.44467 0.935184 0)
(1.48687 0.914157 0)
(3 1.58329e-09 0)
(3 1.01279e-08 0)
(3 3.45705e-08 0)
(3 9.8239e-08 0)
(3 2.54601e-07 0)
(3 6.44739e-07 0)
(3 1.57397e-06 0)
(2.99999 3.91371e-06 0)
(2.99998 9.39805e-06 0)
(2.99996 2.32938e-05 0)
(2.9999 5.58309e-05 0)
(2.99975 0.000138104 0)
(2.99939 0.000331409 0)
(2.99851 0.000818563 0)
(2.99639 0.00197632 0)
(2.99118 0.00487136 0)
(2.97837 0.0119376 0)
(2.94572 0.0299553 0)
(2.85895 0.0781138 0)
(2.61167 0.218058 0)
(2.02572 0.593902 0)
(1.59351 0.883219 0)
(1.48678 0.934665 0)
(1.47656 0.946079 0)
(1.5017 0.935043 0)
(3 1.03497e-09 0)
(3 6.88778e-09 0)
(3 2.26736e-08 0)
(3 6.67456e-08 0)
(3 1.66985e-07 0)
(3 4.34328e-07 0)
(3 1.03611e-06 0)
(3 2.61268e-06 0)
(2.99999 6.20522e-06 0)
(2.99997 1.54349e-05 0)
(2.99993 3.68486e-05 0)
(2.99984 9.06342e-05 0)
(2.99961 0.000218807 0)
(2.99906 0.00053203 0)
(2.99769 0.00129775 0)
(2.99442 0.00313821 0)
(2.98628 0.00773355 0)
(2.96611 0.0189588 0)
(2.91344 0.0483178 0)
(2.7694 0.128564 0)
(2.36185 0.368791 0)
(1.79526 0.796497 0)
(1.55457 0.924064 0)
(1.51433 0.948368 0)
(1.52158 0.95039 0)
(3 6.93506e-10 0)
(3 4.41959e-09 0)
(3 1.51356e-08 0)
(3 4.28207e-08 0)
(3 1.11127e-07 0)
(3 2.79848e-07 0)
(3 6.83921e-07 0)
(3 1.69359e-06 0)
(2.99999 4.05391e-06 0)
(2.99998 1.00778e-05 0)
(2.99996 2.38742e-05 0)
(2.9999 5.95126e-05 0)
(2.99976 0.000140781 0)
(2.99941 0.000350569 0)
(2.99857 0.00083251 0)
(2.99654 0.00206545 0)
(2.99154 0.0049664 0)
(2.97935 0.0123014 0)
(2.94834 0.0305474 0)
(2.86651 0.079386 0)
(2.63422 0.220417 0)
(2.08886 0.59062 0)
(1.67558 0.888429 0)
(1.56757 0.945795 0)
(1.55306 0.95838 0)
(3 4.61367e-10 0)
(3 2.79124e-09 0)
(3 9.91366e-09 0)
(3 2.70099e-08 0)
(3 7.25578e-08 0)
(3 1.76415e-07 0)
(3 4.46142e-07 0)
(3 1.06554e-06 0)
(3 2.63853e-06 0)
(2.99999 6.32004e-06 0)
(2.99997 1.54654e-05 0)
(2.99994 3.73739e-05 0)
(2.99985 9.03709e-05 0)
(2.99964 0.000220539 0)
(2.99912 0.000529012 0)
(2.99787 0.00130175 0)
(2.9948 0.00311059 0)
(2.98737 0.00770632 0)
(2.9688 0.0187182 0)
(2.92098 0.0476314 0)
(2.79138 0.125675 0)
(2.4255 0.357562 0)
(1.88686 0.779075 0)
(1.63869 0.926994 0)
(1.59135 0.95594 0)
(3 2.91569e-10 0)
(3 1.79005e-09 0)
(3 6.24547e-09 0)
(3 1.7344e-08 0)
(3 4.57044e-08 0)
(3 1.1277e-07 0)
(3 2.8237e-07 0)
(3 6.75858e-07 0)
(3 1.67765e-06 0)
(2.99999 3.98348e-06 0)
(2.99998 9.85706e-06 0)
(2.99996 2.34273e-05 0)
(2.99991 5.77497e-05 0)
(2.99978 0.000137861 0)
(2.99947 0.000337496 0)
(2.99869 0.000812982 0)
(2.99688 0.00197764 0)
(2.99235 0.00480904 0)
(2.98141 0.0117577 0)
(2.95365 0.0291751 0)
(2.88112 0.0750657 0)
(2.67693 0.206032 0)
(2.18351 0.553423 0)
(1.76637 0.883278 0)
(1.64287 0.951469 0)
(3 1.78631e-10 0)
(3 1.12839e-09 0)
(3 3.84167e-09 0)
(3 1.09289e-08 0)
(3 2.81241e-08 0)
(3 7.08293e-08 0)
(3 1.73865e-07 0)
(3 4.22336e-07 0)
(3 1.03399e-06 0)
(3 2.47342e-06 0)
(2.99999 6.08755e-06 0)
(2.99998 1.44358e-05 0)
(2.99994 3.57151e-05 0)
(2.99987 8.43188e-05 0)
(2.99968 0.000208931 0)
(2.99923 0.000493844 0)
(2.99813 0.0012209 0)
(2.99552 0.0029085 0)
(2.98904 0.00717255 0)
(2.97327 0.0174371 0)
(2.93286 0.0439286 0)
(2.82518 0.115197 0)
(2.52061 0.324739 0)
(2.00133 0.736744 0)
(1.72445 0.919062 0)
(3 1.09926e-10 0)
(3 6.88102e-10 0)
(3 2.3821e-09 0)
(3 6.65397e-09 0)
(3 1.74051e-08 0)
(3 4.33236e-08 0)
(3 1.06451e-07 0)
(3 2.59988e-07 0)
(3 6.26251e-07 0)
(3 1.52942e-06 0)
(2.99999 3.64992e-06 0)
(2.99999 8.95876e-06 0)
(2.99997 2.12451e-05 0)
(2.99992 5.22654e-05 0)
(2.99981 0.000123901 0)
(2.99954 0.000304219 0)
(2.99889 0.000723813 0)
(2.9973 0.00177131 0)
(2.9935 0.00425429 0)
(2.98412 0.0104097 0)
(2.96082 0.0255638 0)
(2.90034 0.0649274 0)
(2.73278 0.175142 0)
(2.305 0.475625 0)
(1.8676 0.848592 0)
(3 6.56355e-11 0)
(3 4.26138e-10 0)
(3 1.43638e-09 0)
(3 4.11228e-09 0)
(3 1.04968e-08 0)
(3 2.66875e-08 0)
(3 6.42024e-08 0)
(3 1.59718e-07 0)
(3 3.77939e-07 0)
(3 9.36439e-07 0)
(3 2.20762e-06 0)
(2.99999 5.45473e-06 0)
(2.99998 1.28885e-05 0)
(2.99995 3.1681e-05 0)
(2.99989 7.53341e-05 0)
(2.99973 0.000183675 0)
(2.99935 0.000440829 0)
(2.99846 0.00106654 0)
(2.99623 0.00258385 0)
(2.99098 0.00624646 0)
(2.97792 0.0153031 0)
(2.94529 0.0380091 0)
(2.8596 0.0985708 0)
(2.61735 0.27393 0)
(2.1275 0.664181 0)
(3 4.102e-11 0)
(3 2.50178e-10 0)
(3 8.77843e-10 0)
(3 2.41503e-09 0)
(3 6.40023e-09 0)
(3 1.56325e-08 0)
(3 3.91534e-08 0)
(3 9.31916e-08 0)
(3 2.29979e-07 0)
(3 5.45096e-07 0)
(3 1.33717e-06 0)
(3 3.17459e-06 0)
(2.99999 7.73633e-06 0)
(2.99997 1.84804e-05 0)
(2.99994 4.46897e-05 0)
(2.99984 0.000107522 0)
(2.99962 0.000257594 0)
(2.99909 0.000625996 0)
(2.99782 0.00148801 0)
(2.99471 0.00364007 0)
(2.98719 0.00871079 0)
(2.96856 0.0214452 0)
(2.92098 0.0535225 0)
(2.79202 0.141358 0)
(2.44465 0.38829 0)
(3 2.36816e-11 0)
(3 1.52195e-10 0)
(3 5.11325e-10 0)
(3 1.46872e-09 0)
(3 3.74224e-09 0)
(3 9.45255e-09 0)
(3 2.3e-08 0)
(3 5.59725e-08 0)
(3 1.3581e-07 0)
(3 3.24799e-07 0)
(3 7.95036e-07 0)
(3 1.87765e-06 0)
(2.99999 4.63163e-06 0)
(2.99998 1.08753e-05 0)
(2.99996 2.6894e-05 0)
(2.99991 6.31438e-05 0)
(2.99978 0.000155796 0)
(2.99948 0.000367485 0)
(2.99875 0.000902423 0)
(2.997 0.00214801 0)
(2.99272 0.00525287 0)
(2.98239 0.0127038 0)
(2.95647 0.031481 0)
(2.8895 0.0801782 0)
(2.70239 0.218292 0)
(3 1.39482e-11 0)
(3 8.80555e-11 0)
(3 3.02971e-10 0)
(3 8.48562e-10 0)
(3 2.20826e-09 0)
(3 5.49049e-09 0)
(3 1.34231e-08 0)
(3 3.27412e-08 0)
(3 7.83725e-08 0)
(3 1.91659e-07 0)
(3 4.52933e-07 0)
(3 1.11412e-06 0)
(3 2.6183e-06 0)
(2.99999 6.45431e-06 0)
(2.99998 1.51454e-05 0)
(2.99995 3.72901e-05 0)
(2.99988 8.78601e-05 0)
(2.99971 0.000214943 0)
(2.9993 0.000509994 0)
(2.99833 0.00124135 0)
(2.99598 0.00296997 0)
(2.99037 0.0072124 0)
(2.97657 0.0175386 0)
(2.9422 0.043596 0)
(2.85177 0.113332 0)
(3 8.19569e-12 0)
(3 5.01243e-11 0)
(3 1.75614e-10 0)
(3 4.83323e-10 0)
(3 1.27629e-09 0)
(3 3.1191e-09 0)
(3 7.76163e-09 0)
(3 1.85159e-08 0)
(3 4.52397e-08 0)
(3 1.07838e-07 0)
(3 2.606e-07 0)
(3 6.24939e-07 0)
(3 1.495e-06 0)
(2.99999 3.61528e-06 0)
(2.99999 8.56988e-06 0)
(2.99997 2.08524e-05 0)
(2.99993 4.91311e-05 0)
(2.99983 0.00011989 0)
(2.9996 0.00028215 0)
(2.99905 0.000687238 0)
(2.9977 0.00162181 0)
(2.9945 0.00394821 0)
(2.98663 0.00939501 0)
(2.96745 0.0230538 0)
(2.91839 0.0571641 0)
(3 4.56755e-12 0)
(3 2.87675e-11 0)
(3 9.80904e-11 0)
(3 2.76983e-10 0)
(3 7.1232e-10 0)
(3 1.7782e-09 0)
(3 4.34533e-09 0)
(3 1.0456e-08 0)
(3 2.54553e-08 0)
(3 6.02546e-08 0)
(3 1.47269e-07 0)
(3 3.46206e-07 0)
(3 8.4702e-07 0)
(3 1.99081e-06 0)
(2.99999 4.86079e-06 0)
(2.99998 1.14515e-05 0)
(2.99996 2.78333e-05 0)
(2.9999 6.5972e-05 0)
(2.99977 0.000159246 0)
(2.99945 0.000380245 0)
(2.99869 0.000911432 0)
(2.99684 0.00219861 0)
(2.99245 0.0052579 0)
(2.98164 0.0128098 0)
(2.95495 0.0313488 0)
(3 2.45461e-12 0)
(3 1.57224e-11 0)
(3 5.31026e-11 0)
(3 1.50827e-10 0)
(3 3.8515e-10 0)
(3 9.68274e-10 0)
(3 2.32372e-09 0)
(3 5.7038e-09 0)
(3 1.34441e-08 0)
(3 3.28064e-08 0)
(3 7.70917e-08 0)
(3 1.87038e-07 0)
(3 4.41158e-07 0)
(3 1.06264e-06 0)
(3 2.51946e-06 0)
(2.99999 6.02748e-06 0)
(2.99998 1.43684e-05 0)
(2.99994 3.41302e-05 0)
(2.99986 8.17924e-05 0)
(2.99967 0.0001931 0)
(2.99921 0.000465174 0)
(2.99812 0.00109306 0)
(2.99546 0.00264449 0)
(2.98912 0.00625252 0)
(2.97351 0.0151938 0)
(3 1.32352e-12 0)
(3 7.81934e-12 0)
(3 2.80682e-11 0)
(3 7.5204e-11 0)
(3 2.02086e-10 0)
(3 4.80068e-10 0)
(3 1.20949e-09 0)
(3 2.80003e-09 0)
(3 6.89637e-09 0)
(3 1.59637e-08 0)
(3 3.87057e-08 0)
(3 9.04109e-08 0)
(3 2.15514e-07 0)
(3 5.09736e-07 0)
(3 1.19265e-06 0)
(2.99999 2.86116e-06 0)
(2.99998 6.5684e-06 0)
(2.99996 1.59396e-05 0)
(2.9999 3.60138e-05 0)
(2.99977 8.78378e-05 0)
(2.99944 0.000196841 0)
(2.99865 0.000478312 0)
(2.99675 0.00106956 0)
(2.99207 0.00257845 0)
(2.98066 0.00583039 0)
(3 6.18865e-13 0)
(3 3.90849e-12 0)
(3 1.36001e-11 0)
(3 3.75865e-11 0)
(3 9.73109e-11 0)
(3 2.37516e-10 0)
(3 5.74898e-10 0)
(3 1.36608e-09 0)
(3 3.22774e-09 0)
(3 7.63274e-09 0)
(3 1.78173e-08 0)
(3 4.20903e-08 0)
(3 9.74399e-08 0)
(3 2.29736e-07 0)
(3 5.28777e-07 0)
(2.99999 1.23797e-06 0)
(2.99999 2.84635e-06 0)
(2.99997 6.57981e-06 0)
(2.99992 1.50952e-05 0)
(2.99981 3.42738e-05 0)
(2.99954 7.86115e-05 0)
(2.99885 0.000173891 0)
(2.99721 0.00039591 0)
(2.99308 0.000855808 0)
(2.98296 0.00191121 0)
(3 2.73242e-13 0)
(3 1.94588e-12 0)
(3 6.07798e-12 0)
(3 1.83805e-11 0)
(3 4.36881e-11 0)
(3 1.14388e-10 0)
(3 2.57473e-10 0)
(3 6.43944e-10 0)
(3 1.44061e-09 0)
(3 3.47495e-09 0)
(3 7.92493e-09 0)
(3 1.83947e-08 0)
(3 4.30473e-08 0)
(3 9.57215e-08 0)
(3 2.31149e-07 0)
(3 4.9014e-07 0)
(2.99999 1.21505e-06 0)
(2.99997 2.45748e-06 0)
(2.99993 6.23555e-06 0)
(2.99982 1.1866e-05 0)
(2.99956 3.06978e-05 0)
(2.99892 5.4567e-05 0)
(2.99732 0.000139571 0)
(2.99333 0.000235679 0)
(2.98331 0.000551486 0)
(3 1.62224e-13 0)
(3 7.73114e-13 0)
(3 3.08266e-12 0)
(3 7.16544e-12 0)
(3 2.16915e-11 0)
(3 4.51152e-11 0)
(3 1.22872e-10 0)
(3 2.57392e-10 0)
(3 6.50069e-10 0)
(3 1.4328e-09 0)
(3 3.29958e-09 0)
(3 7.90346e-09 0)
(3 1.6258e-08 0)
(3 4.3054e-08 0)
(3 7.86944e-08 0)
(3 2.29986e-07 0)
(2.99999 3.73418e-07 0)
(2.99997 1.2058e-06 0)
(2.99993 1.73746e-06 0)
(2.99983 6.15842e-06 0)
(2.99957 7.83088e-06 0)
(2.99894 2.96251e-05 0)
(2.99736 3.54025e-05 0)
(2.99342 0.000127577 0)
(2.98348 0.000159805 0)
(3 6.07044e-14 0)
(3 3.92552e-13 0)
(3 1.14927e-12 0)
(3 3.56427e-12 0)
(3 8.10504e-12 0)
(3 2.25205e-11 0)
(3 4.27699e-11 0)
(3 1.31471e-10 0)
(3 2.07435e-10 0)
(3 7.46809e-10 0)
(3 9.77252e-10 0)
(3 4.0898e-09 0)
(3 4.70286e-09 0)
(3 2.17561e-08 0)
(3 2.37577e-08 0)
(3 1.10602e-07 0)
(2.99999 1.36691e-07 0)
(2.99997 5.19464e-07 0)
(2.99993 8.38133e-07 0)
(2.99983 2.27407e-06 0)
(2.99958 5.38182e-06 0)
(2.99894 8.28637e-06 0)
(2.9974 3.41596e-05 0)
(2.99343 3.15019e-05 0)
(2.98358 0.000164326 0)
(3 -9.0236e-15 0)
(3 2.39739e-13 0)
(3 3.02689e-13 0)
(3 2.47354e-12 0)
(3 2.11447e-12 0)
(3 1.5115e-11 0)
(3 1.21675e-11 0)
(3 8.09439e-11 0)
(3 7.52883e-11 0)
(3 4.01272e-10 0)
(3 5.07343e-10 0)
(3 1.84937e-09 0)
(3 3.59336e-09 0)
(3 7.47404e-09 0)
(3 2.58787e-08 0)
(3 2.42376e-08 0)
(2.99999 1.78082e-07 0)
(2.99997 3.70246e-08 0)
(2.99993 1.17536e-06 0)
(2.99983 -1.98554e-07 0)
(2.99958 7.29511e-06 0)
(2.99896 -1.85358e-06 0)
(2.99738 4.25963e-05 0)
(2.99353 -2.62679e-06 0)
(2.98362 0.000202479 0)
(3 2.39908e-14 0)
(3 4.12015e-14 0)
(3 3.55642e-13 0)
(3 6.50232e-13 0)
(3 2.26356e-12 0)
(3 3.93791e-12 0)
(3 1.53067e-11 0)
(3 1.45817e-11 0)
(3 1.02633e-10 0)
(3 3.70284e-11 0)
(3 6.47285e-10 0)
(3 1.09272e-11 0)
(3 3.88422e-09 0)
(3 -8.27712e-10 0)
(3 2.22165e-08 0)
(3 -4.44821e-09 0)
(2.99999 1.10194e-07 0)
(2.99997 1.56632e-08 0)
(2.99993 4.97639e-07 0)
(2.99983 5.4141e-07 0)
(2.99958 1.86396e-06 0)
(2.99897 6.49134e-06 0)
(2.9974 7.20531e-06 0)
(2.99357 4.61131e-05 0)
(2.98371 6.10623e-05 0)
(3 1.72796e-14 0)
(3 -4.11394e-15 0)
(3 1.04283e-13 0)
(3 -1.85362e-14 0)
(3 8.25608e-13 0)
(3 -1.27318e-14 0)
(3 5.80994e-12 0)
(3 -2.51004e-12 0)
(3 3.83377e-11 0)
(3 -2.65951e-11 0)
(3 2.33269e-10 0)
(3 -1.79597e-10 0)
(3 1.35615e-09 0)
(3 -9.07712e-10 0)
(3 6.66355e-09 0)
(3 1.54729e-10 0)
(2.99999 2.51446e-08 0)
(2.99997 3.97802e-08 0)
(2.99993 6.06662e-08 0)
(2.99983 4.95335e-07 0)
(2.99958 -1.0416e-07 0)
(2.99897 3.96853e-06 0)
(2.99742 -1.75948e-06 0)
(2.99357 2.59157e-05 0)
(2.98378 6.45605e-06 0)
(1.20742 1.04014 0)
(1.36846 0.785924 0)
(0.815176 0.436843 0)
(0.00507138 0.355395 0)
(-0.229564 0.046386 0)
(-0.408858 0.00665956 0)
(-0.565976 -0.0199545 0)
(-0.639628 -0.0304072 0)
(-0.670145 -0.0113109 0)
(-0.70379 0.0146108 0)
(-0.757198 0.0248718 0)
(-0.813731 0.0236204 0)
(-0.860813 0.0162245 0)
(-0.899174 0.00880237 0)
(-0.937197 0.00562951 0)
(-0.978441 0.00504081 0)
(-1.02065 0.00514465 0)
(-1.06065 0.00526086 0)
(-1.09601 0.00492922 0)
(-1.12697 0.00399958 0)
(-1.15718 0.00285045 0)
(-1.19002 0.00269425 0)
(-1.21776 0.00456452 0)
(-1.23335 0.00469667 0)
(-1.24085 0.0036973 0)
(-1.2403 0.00237759 0)
(-1.22337 0.000147174 0)
(-1.18338 -0.00373058 0)
(-1.12259 -0.00891332 0)
(-1.04622 -0.0142275 0)
(-0.960711 -0.018679 0)
(-0.87117 -0.0220005 0)
(-0.78082 -0.0242373 0)
(-0.691325 -0.0259806 0)
(-0.605464 -0.0268091 0)
(-0.524117 -0.0273439 0)
(-0.447572 -0.0280685 0)
(-0.374872 -0.0289691 0)
(-0.303664 -0.0314939 0)
(-0.236364 -0.0318612 0)
(-0.172298 -0.0318105 0)
(-0.110718 -0.0328927 0)
(-0.0529209 -0.0361194 0)
(0.0104993 -0.0319263 0)
(0.0622664 -0.0278103 0)
(0.113566 -0.0264926 0)
(0.160556 -0.0252483 0)
(0.204916 -0.0241085 0)
(0.247042 -0.0231185 0)
(0.287029 -0.0221353 0)
(0.325095 -0.0211715 0)
(0.361305 -0.0202957 0)
(0.395814 -0.019475 0)
(0.428843 -0.0187482 0)
(0.460453 -0.0180614 0)
(0.490543 -0.0173652 0)
(0.51902 -0.0165892 0)
(0.546399 -0.0158717 0)
(0.573344 -0.0153191 0)
(0.599652 -0.0147986 0)
(0.624988 -0.0141938 0)
(0.649594 -0.0136222 0)
(0.673666 -0.013112 0)
(0.697341 -0.0126431 0)
(0.720718 -0.0122059 0)
(0.743873 -0.0117817 0)
(0.766869 -0.0113855 0)
(0.789737 -0.0109935 0)
(0.812526 -0.0106227 0)
(0.83523 -0.0102546 0)
(0.857877 -0.009898 0)
(0.880454 -0.00954486 0)
(0.90296 -0.00919845 0)
(0.925383 -0.00885357 0)
(0.947711 -0.00851501 0)
(0.969923 -0.00817772 0)
(0.992008 -0.00784486 0)
(1.01395 -0.00751459 0)
(1.03573 -0.00718873 0)
(1.05735 -0.00686547 0)
(1.07878 -0.00654633 0)
(1.10003 -0.00622967 0)
(1.12108 -0.00591569 0)
(1.14192 -0.00560205 0)
(1.16255 -0.00528908 0)
(1.18294 -0.00497514 0)
(1.20307 -0.00466104 0)
(1.22291 -0.00434533 0)
(1.24242 -0.00402837 0)
(1.26156 -0.00370828 0)
(1.28027 -0.00338284 0)
(1.29849 -0.00304652 0)
(1.31613 -0.00269154 0)
(1.33305 -0.00230864 0)
(1.34907 -0.00188342 0)
(1.36393 -0.00139414 0)
(1.37724 -0.000842917 0)
(1.38855 -0.000217485 0)
(1.39695 0.000528136 0)
(1.40308 0.00139056 0)
(1.27578 0.946776 0)
(1.39801 0.652749 0)
(1.20395 0.391236 0)
(0.761821 0.382575 0)
(0.622584 0.320752 0)
(0.486388 0.246027 0)
(0.303693 0.186257 0)
(0.140203 0.120969 0)
(-0.115971 0.0432201 0)
(-0.255609 0.0464863 0)
(-0.384876 0.0445463 0)
(-0.478584 0.036868 0)
(-0.537939 0.0268717 0)