/*--------------------------------*- C++ -*----------------------------------*\
  =========                 |
  \\      /  F ield         | OpenFOAM: The Open Source CFD Toolbox
   \\    /   O peration     | Website:  https://openfoam.org
    \\  /    A nd           | Version:  13
     \\/     M anipulation  |
\*---------------------------------------------------------------------------*/
FoamFile
{
    format      ascii;
    class       volScalarField;
    location    "1";
    object      p;
}
// * * * * * * * * * * * * * * * * * * * * * * * * * * * * * * * * * * * * * //

dimensions      [1 -1 -2 0 0 0 0];

internalField   nonuniform List<scalar> 
5250
(
1
1.00001
1.00003
1.00006
1.00016
1.00038
1.00102
1.00235
1.00632
1.01456
1.03876
1.09334
1.24665
1.65901
2.9042
6.77257
12.7014
11.6893
11.325
11.4607
11.7643
11.9846
12.1136
12.2049
12.2732
1
1.00001
1.00003
1.00006
1.00016
1.00038
1.00102
1.00232
1.00621
1.01449
1.03784
1.09245
1.24175
1.64744
2.86394
6.6444
12.6928
11.6927
11.3212
11.4555
11.7566
11.9746
12.1035
12.1963
12.266
1
1.00001
1.00002
1.00006
1.00016
1.00037
1.00098
1.00226
1.00606
1.01395
1.03709
1.08896
1.23435
1.62225
2.78439
6.37091
12.6571
11.6901
11.3027
11.4291
11.7186
11.9293
12.0548
12.1468
12.2167
1
1.00001
1.00002
1.00006
1.00015
1.00036
1.00095
1.00218
1.00584
1.01344
1.03567
1.08539
1.22407
1.59141
2.68005
5.99586
12.5589
11.6686
11.2661
11.3787
11.6461
11.8468
11.9671
12.0566
12.1264
1
1.00001
1.00002
1.00005
1.00015
1.00034
1.00091
1.00208
1.00558
1.01282
1.03402
1.08126
1.2129
1.55959
2.58171
5.67897
12.2948
11.5998
11.2094
11.3041
11.5405
11.7305
11.8445
11.9297
11.9983
1
1.00001
1.00002
1.00005
1.00014
1.00032
1.00086
1.00196
1.00526
1.01207
1.0321
1.07646
1.2002
1.52387
2.47501
5.34303
11.8899
11.4646
11.132
11.2027
11.3954
11.5743
11.6799
11.7573
11.8238
1
1.00001
1.00002
1.00005
1.00013
1.00029
1.0008
1.00182
1.0049
1.01127
1.02977
1.07136
1.18568
1.485
2.35878
4.97969
11.3715
11.2835
11.045
11.076
11.2081
11.373
11.4623
11.5222
11.5759
1
1.00001
1.00002
1.00004
1.00012
1.00027
1.00073
1.00166
1.0045
1.01026
1.02739
1.06501
1.16989
1.44098
2.23169
4.58642
10.6924
11.1055
10.9511
10.92
10.9878
11.1226
11.1797
11.2049
11.2232
1
1.00001
1.00002
1.00004
1.00011
1.00024
1.00066
1.00149
1.00403
1.00925
1.02453
1.05855
1.15209
1.39336
2.09208
4.16863
9.83289
10.9834
10.8327
10.7127
10.7438
10.8157
10.8124
10.7671
10.6738
1
1
1.00001
1.00004
1.00009
1.00023
1.00053
1.00142
1.00326
1.00875
1.02028
1.05342
1.13053
1.3457
1.94246
3.72968
8.79025
10.8849
10.7106
10.4772
10.4625
10.4476
10.3625
10.1495
9.75526
1
1
1.00001
1.00003
1.00008
1.00018
1.00049
1.00111
1.00301
1.00685
1.01856
1.0433
1.11397
1.28874
1.79203
3.26789
7.57716
10.8078
10.5975
10.2459
10.154
10.0442
9.78069
9.16904
7.57249
1
1
1.00001
1.00003
1.00006
1.00016
1.00037
1.00099
1.00228
1.00613
1.01413
1.03758
1.09028
1.2376
1.6299
2.79354
6.20407
10.6647
10.4648
10.044
9.84297
9.63617
9.21168
8.37122
6.70355
1
1
1.00001
1.00002
1.00005
1.00012
1.00033
1.00075
1.00201
1.00457
1.0123
1.02854
1.07481
1.18487
1.49223
2.35994
4.87223
10.2614
10.1974
9.87996
9.54379
9.23937
8.72374
7.85525
6.49582
1
1
1.00001
1.00002
1.00004
1.00011
1.00024
1.00066
1.0015
1.00401
1.00936
1.0243
1.05894
1.15134
1.39264
2.08107
4.08949
9.22033
9.84462
9.65593
9.26701
8.88664
8.35079
7.5426
6.45362
1
1
1.00001
1.00001
1.00003
1.00008
1.00021
1.00049
1.00128
1.00303
1.00777
1.01894
1.04768
1.11955
1.31029
1.84258
3.39469
7.65417
9.54852
9.41424
9.06077
8.6043
8.07014
7.34198
6.43471
1
1
1
1.00001
1.00002
1.00006
1.00015
1.0004
1.00095
1.00239
1.00593
1.01455
1.03674
1.09115
1.23504
1.6257
2.75793
5.96686
9.31246
9.23469
8.92618
8.39814
7.85956
7.20493
6.42278
1
1
1
1.00001
1.00002
1.00005
1.00011
1.0003
1.00069
1.00184
1.00422
1.01128
1.02612
1.06857
1.16768
1.44409
2.2017
4.30788
8.77916
9.00917
8.78554
8.27717
7.70651
7.09746
6.4053
1
1
1
1.00001
1.00001
1.00003
1.00009
1.00021
1.00056
1.00128
1.00338
1.00793
1.02046
1.04965
1.12658
1.32503
1.87893
3.45515
7.50278
8.7032
8.56032
8.16945
7.59034
7.01322
6.39397
1
1
1
1
1.00001
1.00002
1.00007
1.00015
1.0004
1.00092
1.00248
1.00564
1.01517
1.0353
1.09246
1.23053
1.61897
2.70815
5.69576
8.37963
8.33525
8.08141
7.54234
6.96077
6.38291
1
1
1
1
1.00001
1.00002
1.00004
1.00012
1.00026
1.0007
1.00159
1.00425
1.00984
1.02557
1.06147
1.15751
1.40362
2.08247
3.89107
7.71023
8.13704
7.96651
7.5338
6.94343
6.38397
1
1
1
1
1
1.00001
1.00003
1.00008
1.00019
1.00046
1.00117
1.00278
1.00721
1.01697
1.04398
1.10674
1.27801
1.73313
3.00846
6.26534
7.87105
7.79128
7.50789
6.95096
6.39148
1
1
1
1
1
1.00001
1.00002
1.00005
1.00013
1.0003
1.00078
1.00189
1.00463
1.01164
1.02823
1.0713
1.17851
1.46634
2.24884
4.31165
7.37845
7.59734
7.43406
7.00017
6.41636
1
1
1
1
1
1.00001
1.00001
1.00003
1.00009
1.0002
1.00053
1.0012
1.00321
1.0074
1.0193
1.04604
1.1177
1.29828
1.79014
3.11207
6.26538
7.37496
7.29266
7.00777
6.47243
1
1
1
1
1
1
1.00001
1.00002
1.00005
1.00013
1.00032
1.00082
1.00194
1.00505
1.01174
1.03067
1.07325
1.18945
1.48665
2.30172
4.38989
6.91624
7.10097
6.96451
6.59818
1
1
1
1
1
1
1.00001
1.00001
1.00003
1.00008
1.00021
1.00049
1.00131
1.00297
1.00793
1.01818
1.04783
1.11431
1.29867
1.77073
3.02342
5.89669
6.89496
6.84879
6.63187
1
1
1
1
1
1
1
1.00001
1.00002
1.00005
1.00012
1.00033
1.00074
1.00197
1.00447
1.0119
1.02752
1.07164
1.17476
1.45618
2.18957
4.04102
6.42622
6.70111
6.59222
1
1
1
1
1
1
1
1.00001
1.00001
1.00003
1.00008
1.00018
1.00049
1.00111
1.00295
1.00675
1.01767
1.04177
1.10655
1.2669
1.69309
2.79136
5.34995
6.46982
6.46013
1
1
1
1
1
1
1
1
1.00001
1.00002
1.00005
1.00011
1.00028
1.00066
1.00172
1.00392
1.01034
1.02373
1.06185
1.14809
1.38288
1.97026
3.40934
5.91809
6.32504
1
1
1
1
1
1
1
1
1
1.00001
1.00003
1.00007
1.00016
1.00039
1.00101
1.0023
1.0061
1.01393
1.03664
1.08637
1.22371
1.56604
2.4641
4.627
6.00917
1
1
1
1
1
1
1
1
1
1.00001
1.00001
1.00004
1.00009
1.00023
1.00055
1.00136
1.00336
1.00804
1.02037
1.04856
1.12275
1.30469
1.77391
2.89527
5.25415
1
1
1
1
1
1
1
1
1
1
1.00001
1.00002
1.00005
1.00013
1.00029
1.00077
1.00177
1.00461
1.01078
1.02735
1.06636
1.16676
1.4208
2.06716
3.63041
1
1
1
1
1
1
1
1
1
1
1
1.00001
1.00003
1.00007
1.00016
1.00043
1.00096
1.00256
1.00581
1.01534
1.03564
1.09154
1.22495
1.5729
2.43167
1
1
1
1
1
1
1
1
1
1
1
1.00001
1.00001
1.00004
1.00009
1.00022
1.00052
1.00135
1.00309
1.00813
1.01854
1.04838
1.11412
1.29134
1.71562
1
1
1
1
1
1
1
1
1
1
1
1
1.00001
1.00002
1.00005
1.00011
1.00029
1.00065
1.0017
1.00392
1.01002
1.02383
1.05938
1.14612
1.3655
1
1
1
1
1
1
1
1
1
1
1
1
1
1.00001
1.00002
1.00006
1.00014
1.00034
1.00087
1.002
1.00526
1.0119
1.03159
1.07297
1.18949
1
1
1
1
1
1
1
1
1
1
1
1
1
1
1.00001
1.00003
1.00007
1.00018
1.00041
1.00109
1.00246
1.0065
1.01475
1.03866
1.09066
1
1
1
1
1
1
1
1
1
1
1
1
1
1
1.00001
1.00001
1.00004
1.00008
1.00022
1.00051
1.00126
1.00308
1.00738
1.01847
1.04386
1
1
1
1
1
1
1
1
1
1
1
1
1
1
1
1.00001
1.00002
1.00004
1.0001
1.00024
1.00062
1.00141
1.00368
1.00833
1.02172
1
1
1
1
1
1
1
1
1
1
1
1
1
1
1
1
1.00001
1.00002
1.00005
1.00012
1.00028
1.0007
1.00166
1.00404
1.00994
1
1
1
1
1
1
1
1
1
1
1
1
1
1
1
1
1
1.00001
1.00002
1.00005
1.00013
1.00031
1.00078
1.00189
1.00451
1
1
1
1
1
1
1
1
1
1
1
1
1
1
1
1
1
1
1.00001
1.00002
1.00006
1.00014
1.00037
1.00083
1.00215
1
1
1
1
1
1
1
1
1
1
1
1
1
1
1
1
1
1
1
1.00001
1.00003
1.00007
1.00015
1.00039
1.00091
1
1
1
1
1
1
1
1
1
1
1
1
1
1
1
1
1
1
1
1
1.00001
1.00003
1.00007
1.00016
1.00041
1
1
1
1
1
1
1
1
1
1
1
1
1
1
1
1
1
1
1
1
1
1.00001
1.00003
1.00007
1.00018
1
1
1
1
1
1
1
1
1
1
1
1
1
1
1
1
1
1
1
1
1
1.00001
1.00001
1.00003
1.00007
1
1
1
1
1
1
1
1
1
1
1
1
1
1
1
1
1
1
1
1
1
1
1.00001
1.00001
1.00003
1
1
1
1
1
1
1
1
1
1
1
1
1
1
1
1
1
1
1
1
1
1
1
1.00001
1.00001
1
1
1
1
1
1
1
1
1
1
1
1
1
1
1
1
1
1
1
1
1
1
1
1
1
1
1
1
1
1
1
1
1
1
1
1
1
1
1
1
1
1
1
1
1
1
1
1
1
1
1
1
1
1
1
1
1
1
1
1
1
1
1
1
1
1
1
1
1
1
1
1
1
1
1
3.04943
1.54042
1.04011
0.920829
0.940782
1.00686
1.14638
1.26396
1.30104
1.2979
1.28789
1.26746
1.25346
1.24931
1.24828
1.24662
1.24324
1.23712
1.22925
1.22052
1.21155
1.20265
1.19379
1.18484
1.17564
1.16611
1.15621
1.14597
1.13541
1.12462
1.11369
1.1027
1.09168
1.0807
1.06981
1.05904
1.04844
1.03799
1.02772
1.01767
1.00788
0.998319
0.988987
0.979906
0.97109
0.962538
0.954247
0.946226
0.938472
0.93098
0.923748
0.916772
0.910073
0.903636
0.897485
0.891625
0.88606
0.880789
0.875823
0.871153
0.866792
0.86272
0.858955
0.855479
0.852276
0.849373
0.846749
0.844432
0.842394
0.840673
0.8393
0.838215
0.837457
0.836929
0.836799
0.836814
0.836905
0.837174
0.837773
0.838836
0.840007
0.841323
0.842794
0.844402
0.846215
0.847977
0.849897
0.851887
0.854144
0.856373
0.858316
0.861214
0.862945
0.866505
0.868185
0.872003
0.874029
0.878657
0.882664
0.891692
3.76922
2.35216
1.74324
1.4783
1.34739
1.25175
1.20478
1.2071
1.21723
1.23963
1.27094
1.28028
1.27845
1.27297
1.26167
1.25039
1.24127
1.23394
1.22735
1.22057
1.21311
1.20484
1.19584
1.1864
1.17667
1.16671
1.15654
1.14616
1.13557
1.12477
1.11384
1.10286
1.09184
1.08087
1.06996
1.05917
1.04857
1.03812
1.02782
1.01773
1.00804
0.998487
0.989149
0.980076
0.971274
0.962732
0.95444
0.946408
0.938649
0.931128
0.923866
0.916874
0.910156
0.903683
0.897507
0.891614
0.886055
0.880766
0.875767
0.871037
0.86669
0.862525
0.85875
0.855279
0.852158
0.849369
0.846813
0.844597
0.842582
0.840897
0.839561
0.838441
0.837588
0.837033
0.836903
0.836918
0.837006
0.837268
0.837843
0.838915
0.840078
0.841414
0.842822
0.844402
0.846157
0.847962
0.849875
0.851938
0.85411
0.856386
0.8586
0.86103
0.863462
0.866224
0.868493
0.871836
0.874084
0.878477
0.881948
0.889582
4.59422
3.27286
2.43932
1.90595
1.56172
1.344
1.21326
1.16816
1.17137
1.18336
1.20976
1.24018
1.25937
1.25923
1.25747
1.25272
1.24295
1.23302
1.22446
1.21669
1.20886
1.20077
1.1923
1.18342
1.17414
1.16447
1.15445
1.14413
1.13359
1.12287
1.11203
1.10121
1.09039
1.07951
1.0687
1.05805
1.04755
1.03717
1.02694
1.01691
1.00719
0.997751
0.988484
0.979454
0.970696
0.9622
0.953935
0.945934
0.938156
0.930627
0.923379
0.916377
0.909648
0.903183
0.897012
0.891135
0.88557
0.880294
0.875342
0.870684
0.866323
0.862329
0.858571
0.855004
0.851675
0.848676
0.846256
0.843875
0.841964
0.840178
0.838876
0.83779
0.837008
0.836456
0.836339
0.836358
0.836456
0.836729
0.837349
0.838522
0.839575
0.841081
0.842398
0.844228
0.845829
0.847831
0.849776
0.851878
0.854018
0.856244
0.85856
0.86094
0.863455
0.866147
0.868518
0.871781
0.874155
0.878286
0.881427
0.887976
5.04344
3.8373
2.94864
2.33213
1.91816
1.63682
1.45436
1.33557
1.25999
1.22275
1.21917
1.22195
1.22966
1.2452
1.25403
1.25384
1.25205
1.24733
1.23746
1.22569
1.21476
1.20459
1.19508
1.18583
1.17644
1.16666
1.15647
1.14594
1.13519
1.12431
1.11339
1.1025
1.09162
1.08076
1.06996
1.05927
1.04874
1.03832
1.02802
1.01799
1.00823
0.998676
0.989335
0.980302
0.97149
0.962948
0.954686
0.946606
0.938729
0.931234
0.923955
0.916903
0.910118
0.903601
0.897385
0.891451
0.885839
0.880529
0.875515
0.870783
0.866406
0.86223
0.858421
0.855018
0.851883
0.849037
0.84648
0.844191
0.842251
0.840507
0.839212
0.838097
0.837256
0.836816
0.836671
0.836686
0.836771
0.837014
0.837583
0.838783
0.839835
0.841367
0.842618
0.844501
0.845985
0.848114
0.849889
0.852078
0.854194
0.856458
0.858812
0.861239
0.863713
0.866402
0.868919
0.872038
0.874382
0.878384
0.881207
0.886997
5.31513
4.25926
3.40292
2.75626
2.28366
1.93929
1.68758
1.50296
1.37337
1.28214
1.22812
1.20575
1.20608
1.20855
1.21453
1.22475
1.22898
1.22868
1.22707
1.22286
1.2141
1.20332
1.19263
1.18219
1.17194
1.16175
1.15155
1.14129
1.13095
1.12053
1.11002
1.09946
1.08886
1.07823
1.06761
1.0571
1.04675
1.03648
1.02631
1.01632
1.00664
0.99716
0.987911
0.978913
0.970133
0.961577
0.953295
0.945252
0.937482
0.929947
0.922681
0.915672
0.908922
0.902453
0.896267
0.890371
0.884778
0.879486
0.874496
0.869828
0.865445
0.861394
0.857666
0.854143
0.85091
0.848005
0.845396
0.843116
0.841146
0.839447
0.838108
0.837071
0.836268
0.835807
0.835721
0.835749
0.83587
0.83618
0.836852
0.837996
0.839104
0.840689
0.841954
0.844025
0.845486
0.847773
0.8495
0.851908
0.853956
0.856439
0.858757
0.861219
0.863719
0.866531
0.868978
0.872286
0.87454
0.878639
0.881244
0.886672
5.49633
4.58169
3.78593
3.14119
2.63795
2.25142
1.95619
1.73206
1.56281
1.43582
1.34443
1.27795
1.23789
1.2162
1.21074
1.21156
1.21369
1.21836
1.22038
1.21984
1.21775
1.21283
1.20277
1.19054
1.17799
1.16589
1.15442
1.1435
1.13293
1.12249
1.11208
1.10161
1.09108
1.08047
1.06983
1.05931
1.04895
1.03859
1.02832
1.01827
1.00849
0.998911
0.989573
0.980442
0.971542
0.962919
0.954547
0.946434
0.938599
0.931031
0.923742
0.916684
0.909898
0.903405
0.897192
0.891264
0.885628
0.880286
0.87525
0.87051
0.866068
0.861937
0.85808
0.854565
0.851371
0.848483
0.845879
0.843589
0.84161
0.839905
0.83854
0.837508
0.836691
0.836213
0.836142
0.836167
0.83628
0.836595
0.837297
0.838422
0.839664
0.841185
0.842529
0.844632
0.846116
0.848544
0.850285
0.852836
0.8549
0.857496
0.85978
0.862487
0.864893
0.867919
0.870191
0.873716
0.875851
0.879957
0.882369
0.887481
5.61827
4.82176
4.0945
3.47287
2.96193
2.55148
2.2251
1.96705
1.7629
1.60167
1.47518
1.37734
1.30399
1.25185
1.22065
1.20461
1.19784
1.19751
1.19776
1.19832
1.19806
1.19685
1.19369
1.18695
1.17621
1.16433
1.15237
1.14074
1.12953
1.11868
1.10811
1.09772
1.08743
1.07715
1.06685
1.05666
1.04659
1.03642
1.02627
1.01634
1.00663
0.997111
0.987838
0.978762
0.969851
0.961248
0.952989
0.944892
0.937124
0.92959
0.922321
0.915272
0.908477
0.90205
0.895884
0.889983
0.884361
0.879023
0.87398
0.869238
0.864794
0.860654
0.856832
0.853307
0.850091
0.847203
0.8446
0.842306
0.840332
0.838631
0.837281
0.836274
0.83547
0.835053
0.835023
0.835067
0.835232
0.835625
0.836444
0.83776
0.839141
0.840825
0.842559
0.84466
0.846521
0.849236
0.851269
0.854229
0.856371
0.859363
0.861763
0.864983
0.867327
0.870854
0.872971
0.876817
0.878846
0.882969
0.885252
0.890307
5.70928
5.00686
4.34381
3.75479
3.25103
2.83093
2.48504
2.2027
1.97322
1.78686
1.63632
1.51528
1.41847
1.34333
1.28517
1.24192
1.21467
1.19847
1.19053
1.18725
1.18615
1.18567
1.18464
1.18229
1.17746
1.16867
1.15803
1.1464
1.13442
1.12254
1.11105
1.10002
1.08937
1.07899
1.06878
1.05869
1.04864
1.03859
1.02858
1.01867
1.0089
0.99935
0.990006
0.980843
0.971951
0.963376
0.954979
0.946818
0.93908
0.931571
0.924213
0.91699
0.910197
0.903722
0.89749
0.891521
0.885828
0.880419
0.875306
0.870491
0.865973
0.861762
0.857861
0.854264
0.850983
0.848031
0.845388
0.843027
0.841004
0.839274
0.837912
0.836902
0.836117
0.835787
0.835797
0.835894
0.83618
0.836794
0.838022
0.839639
0.841581
0.843864
0.846243
0.849014
0.851866
0.855065
0.858
0.861562
0.864513
0.868725
0.87146
0.875723
0.878085
0.882258
0.884218
0.888162
0.889895
0.89353
0.895449
0.900208
5.7707
5.14616
4.54385
3.99228
3.50504
3.08573
2.73054
2.43262
2.18415
1.97769
1.8063
1.66443
1.54696
1.45038
1.37139
1.30885
1.25957
1.22254
1.19871
1.18383
1.17521
1.1707
1.16787
1.16572
1.16302
1.15838
1.15162
1.14289
1.13264
1.12148
1.11002
1.09866
1.08757
1.07682
1.06638
1.05621
1.04623
1.03639
1.02665
1.01699
1.00745
0.998072
0.988838
0.979756
0.970922
0.962374
0.954003
0.945832
0.938099
0.930669
0.923301
0.916054
0.909209
0.902717
0.89645
0.890435
0.884692
0.879233
0.874071
0.869214
0.864663
0.860428
0.856505
0.852892
0.849615
0.846644
0.843968
0.841666
0.839706
0.83805
0.836789
0.835893
0.835314
0.835357
0.835555
0.83603
0.837004
0.838727
0.841045
0.84395
0.847369
0.851391
0.855932
0.861033
0.866449
0.872418
0.878279
0.884631
0.890046
0.896213
0.900473
0.906764
0.909493
0.914342
0.915925
0.919335
0.920272
0.922444
0.923273
0.927176
5.82143
5.25599
4.70478
4.19022
3.72484
3.31406
2.95737
2.65115
2.38991
2.16824
1.98008
1.82097
1.68646
1.57333
1.47842
1.3997
1.33449
1.28243
1.24026
1.20783
1.18548
1.1705
1.16107
1.15533
1.15144
1.14811
1.14426
1.13905
1.13217
1.12365
1.11379
1.10299
1.09172
1.08041
1.06934
1.05864
1.04832
1.03835
1.02862
1.01907
1.00967
1.00039
0.991231
0.982182
0.973321
0.964696
0.956245
0.947973
0.940092
0.932572
0.925124
0.917841
0.91092
0.904367
0.89806
0.892012
0.886231
0.880728
0.875514
0.870599
0.86598
0.861671
0.85768
0.854001
0.85067
0.847679
0.845001
0.842745
0.840897
0.839414
0.838436
0.83823
0.838458
0.839119
0.840533
0.843179
0.84699
0.852115
0.858625
0.86662
0.875967
0.886627
0.898263
0.910812
0.923573
0.936741
0.949063
0.961385
0.971474
0.98159
0.987949
0.996402
0.999069
1.00334
1.00333
1.00327
1.00203
0.999766
0.994817
0.997999
5.85911
5.34047
4.83662
4.35815
3.91646
3.51802
3.16465
2.85501
2.58577
2.35304
2.15235
1.97982
1.83152
1.70443
1.59536
1.5023
1.42293
1.35619
1.30015
1.25451
1.21742
1.18864
1.16784
1.15339
1.14351
1.13679
1.13159
1.12696
1.12203
1.11601
1.10878
1.10015
1.09054
1.0802
1.06946
1.0586
1.0481
1.03789
1.02795
1.01828
1.00884
0.9996
0.990522
0.981581
0.972803
0.964208
0.955772
0.947485
0.939489
0.93187
0.924388
0.917074
0.910127
0.903546
0.89724
0.891204
0.885429
0.879917
0.874689
0.869749
0.865092
0.860736
0.856705
0.85301
0.849694
0.846783
0.844308
0.842402
0.84111
0.840908
0.841408
0.842868
0.84594
0.850951
0.858616
0.869048
0.882479
0.899064
0.918644
0.941057
0.965728
0.992072
1.01912
1.04673
1.07306
1.09804
1.11994
1.14
1.15546
1.16967
1.17784
1.18552
1.18638
1.18566
1.18205
1.17717
1.16705
1.15768
1.13967
1.14612
5.90404
5.42151
4.95454
4.5065
4.08683
3.70179
3.35429
3.04452
2.77075
2.53036
2.32011
2.13678
1.97713
1.83832
1.71765
1.61293
1.52212
1.44372
1.37625
1.31874
1.27006
1.22977
1.19683
1.17073
1.1509
1.1366
1.1263
1.11887
1.11299
1.10779
1.10246
1.09655
1.08972
1.08147
1.0722
1.06232
1.05184
1.04124
1.03077
1.02062
1.01078
1.00129
0.992104
0.98318
0.974496
0.966016
0.957706
0.949554
0.941607
0.933951
0.926522
0.919243
0.912267
0.905621
0.899235
0.893108
0.887237
0.881634
0.876339
0.871346
0.866647
0.862274
0.858302
0.854793
0.851846
0.849681
0.848352
0.848872
0.850449
0.853699
0.860315
0.871033
0.886695
0.907734
0.934777
0.967509
1.00616
1.0503
1.09792
1.14861
1.2019
1.25515
1.30427
1.34771
1.38261
1.41185
1.43271
1.44948
1.45822
1.4637
1.46528
1.46414
1.4607
1.45599
1.4469
1.438
1.42021
1.40641
1.37809
1.38951
5.96406
5.5004
5.06099
4.63961
4.23997
3.86823
3.52788
3.22013
2.94436
2.69901
2.48178
2.29006
2.12129
1.97283
1.84241
1.72785
1.62725
1.53901
1.4617
1.39418
1.33546
1.28481
1.24158
1.20519
1.17533
1.15122
1.13246
1.11832
1.10776
1.09975
1.09321
1.08745
1.08156
1.0754
1.06839
1.06041
1.05153
1.04195
1.03198
1.02183
1.01179
1.00198
0.992471
0.983287
0.97444
0.965898
0.95762
0.949623
0.941885
0.934383
0.927077
0.91992
0.912917
0.90614
0.899621
0.893332
0.887253
0.88154
0.876173
0.871156
0.866552
0.862374
0.859045
0.856616
0.856025
0.857192
0.860603
0.867674
0.880302
0.900341
0.929434
0.967764
1.0163
1.07532
1.14379
1.22357
1.30776
1.38605
1.45231
1.50368
1.53864
1.55914
1.57025
1.57544
1.57531
1.5734
1.57024
1.56533
1.55996
1.55428
1.54876
1.5435
1.53722
1.53214
1.52522
1.52031
1.5121
1.50747
1.49931
1.50431
6.06227
5.59302
5.16478
4.76114
4.37855
4.01946
3.68701
3.38289
3.10716
2.85899
2.63683
2.43873
2.26261
2.10623
1.96758
1.84464
1.73565
1.63901
1.55333
1.47742
1.41029
1.3511
1.29918
1.25401
1.21518
1.18216
1.15475
1.13238
1.11463
1.10083
1.09021
1.08197
1.07522
1.06926
1.06348
1.0572
1.05016
1.04231
1.03375
1.02466
1.01523
1.00565
0.996116
0.986753
0.977666
0.968909
0.960494
0.952379
0.944526
0.936947
0.929544
0.922274
0.915151
0.90822
0.901554
0.895233
0.889171
0.883497
0.878456
0.87392
0.870329
0.868034
0.868901
0.871919
0.878322
0.891682
0.914255
0.950021
0.998659
1.06367
1.14292
1.24284
1.3558
1.45618
1.5378
1.58971
1.61671
1.62901
1.63264
1.63092
1.62745
1.62188
1.61519
1.6085
1.60082
1.59388
1.58631
1.57916
1.5718
1.5655
1.5584
1.55313
1.54642
1.54118
1.53468
1.52972
1.52297
1.51862
1.51109
1.5121
6.17614
5.69003
5.26191
4.87109
4.50353
4.15701
3.83302
3.53362
3.25946
3.01025
2.78501
2.58228
2.40041
2.23758
2.09199
1.96191
1.84565
1.74173
1.64878
1.56563
1.49124
1.42476
1.36546
1.31276
1.2662
1.22541
1.19005
1.15984
1.13441
1.1135
1.0967
1.08336
1.07278
1.06429
1.05716
1.05095
1.04493
1.0386
1.03168
1.02405
1.01578
1.00703
0.997948
0.988731
0.979542
0.970505
0.961704
0.953195
0.94498
0.937042
0.9294
0.922122
0.915081
0.908439
0.902119
0.896198
0.890625
0.885897
0.882264
0.880753
0.882535
0.887989
0.899237
0.920649
0.95855
1.0136
1.0897
1.18729
1.31617
1.45153
1.56198
1.63385
1.6687
1.68288
1.68592
1.68331
1.67711
1.66876
1.65923
1.64914
1.63902
1.62945
1.61991
1.61118
1.60228
1.59417
1.58573
1.57831
1.57025
1.56416
1.55644
1.55131
1.54422
1.53957
1.53308
1.52888
1.52213
1.51844
1.51099
1.51219
6.30012
5.80718
5.36868
4.97963
4.61964
4.28331
3.96822
3.67422
3.40261
3.15359
2.9266
2.72061
2.53432
2.36626
2.21489
2.0787
1.95615
1.84587
1.74654
1.65703
1.57629
1.50346
1.43779
1.37867
1.32559
1.27816
1.23602
1.19892
1.16659
1.13881
1.11527
1.09571
1.0798
1.06697
1.05661
1.04814
1.04098
1.03454
1.02827
1.02179
1.01487
1.00741
0.999485
0.991177
0.982609
0.973922
0.965246
0.956701
0.948373
0.940323
0.932605
0.925226
0.918366
0.911899
0.905961
0.900973
0.897463
0.897876
0.901333
0.909186
0.927175
0.961944
1.0185
1.09945
1.20822
1.35743
1.5141
1.63749
1.70379
1.73223
1.74264
1.74046
1.73409
1.72335
1.71025
1.69681
1.68378
1.67148
1.65963
1.64813
1.63665
1.62567
1.61456
1.60428
1.5939
1.58451
1.57486
1.56667
1.55795
1.55127
1.54327
1.53789
1.53104
1.52653
1.52055
1.51692
1.5109
1.5079
1.50189
1.50229
6.30688
5.9537
5.49225
5.09025
4.7335
4.40334
4.0941
3.80534
3.53716
3.28944
3.06184
2.85376
2.66421
2.492
2.33587
2.19444
2.06644
1.95055
1.84558
1.7504
1.66404
1.5856
1.51435
1.44961
1.3909
1.33774
1.28979
1.24675
1.20838
1.17447
1.14477
1.11913
1.09725
1.07887
1.0637
1.05128
1.04107
1.0325
1.02508
1.01834
1.01187
1.00533
0.998501
0.991274
0.983681
0.975769
0.967628
0.959378
0.951142
0.943038
0.935213
0.927818
0.921232
0.915837
0.912386
0.913953
0.919535
0.931519
0.957465
1.00746
1.08586
1.19608
1.3559
1.53603
1.68632
1.76072
1.79345
1.80464
1.8005
1.7899
1.77517
1.75803
1.74102
1.72509
1.70978
1.69463
1.67922
1.66413
1.64894
1.6344
1.61997
1.60641
1.59308
1.58092
1.56894
1.55832
1.54771
1.53877
1.5296
1.52231
1.5145
1.50867
1.50224
1.49782
1.49245
1.48925
1.48424
1.48193
1.47786
1.47726
6.26055
6.05056
5.62566
5.20873
4.8453
4.51771
4.214
3.93029
3.66573
3.41948
3.19178
2.98243
2.79055
2.6151
2.45502
2.30911
2.1763
2.05541
1.94536
1.84509
1.75366
1.67018
1.59391
1.52419
1.46048
1.40231
1.3493
1.30114
1.25757
1.21834
1.18329
1.15218
1.12481
1.10104
1.08058
1.06321
1.04863
1.03653
1.02641
1.0178
1.01023
1.00332
0.99672
0.990184
0.983473
0.976517
0.969307
0.961883
0.954382
0.947063
0.940227
0.935017
0.932055
0.934273
0.941462
0.959066
0.992745
1.05952
1.16286
1.31306
1.51656
1.70615
1.80961
1.85342
1.87078
1.86647
1.85511
1.83676
1.81532
1.79509
1.77567
1.75653
1.73689
1.7172
1.69726
1.67768
1.65825
1.63967
1.62152
1.60452
1.58805
1.5729
1.55826
1.54509
1.53232
1.52113
1.51017
1.50084
1.49164
1.48405
1.47648
1.47047
1.46438
1.45992
1.45507
1.45184
1.44801
1.44518
1.44397
1.44119
6.12861
6.02783
5.77068
5.34462
4.96541
4.63357
4.33214
4.05151
3.789
3.54471
3.31777
3.10763
2.91387
2.73571
2.57225
2.42249
2.28545
2.16013
2.04552
1.94066
1.84461
1.75655
1.67571
1.60146
1.53324
1.47058
1.41309
1.36042
1.3123
1.26847
1.22871
1.19282
1.16066
1.13195
1.10657
1.08434
1.06504
1.04844
1.03429
1.02236
1.01225
1.00356
0.995872
0.988864
0.982265
0.975849
0.969501
0.963294
0.957694
0.952902
0.952486
0.955138
0.963943
0.985804
1.02868
1.11178
1.23634
1.44171
1.66813
1.84355
1.90738
1.93896
1.94039
1.93067
1.90932
1.88459
1.86016
1.83675
1.81324
1.78914
1.76433
1.73937
1.71453
1.69038
1.66682
1.64436
1.62272
1.60248
1.5831
1.56527
1.5482
1.53272
1.51788
1.50463
1.4919
1.48071
1.46995
1.46063
1.45171
1.44409
1.43682
1.43074
1.42499
1.42026
1.41602
1.41221
1.4095
1.40613
1.40497
1.40233
5.94279
5.92903
5.80005
5.50664
5.11125
4.76194
4.45317
4.17195
3.90958
3.66561
3.43928
3.2289
3.03382
2.8536
2.6874
2.53437
2.39367
2.26443
2.14574
2.03672
1.93648
1.84422
1.75921
1.68082
1.60848
1.54174
1.48018
1.42346
1.37127
1.32336
1.27947
1.23942
1.20296
1.16999
1.14025
1.11355
1.08981
1.06882
1.05044
1.03443
1.02062
1.00882
0.998759
0.990091
0.982539
0.975889
0.970829
0.967292
0.968508
0.9729
0.984682
1.00918
1.06143
1.16234
1.30766
1.55933
1.81026
1.94886
2.00233
2.02104
2.01232
1.99292
1.96782
1.93842
1.91055
1.88289
1.85404
1.82427
1.79406
1.76404
1.73451
1.70598
1.67849
1.65248
1.62767
1.60453
1.58255
1.56229
1.54304
1.5255
1.50877
1.49367
1.47923
1.46634
1.45401
1.44311
1.43269
1.42358
1.41492
1.40741
1.40038
1.39426
1.38875
1.38385
1.37976
1.37586
1.37307
1.36983
1.36851
1.36565
5.47982
5.80417
5.76054
5.60343
5.27527
4.90517
4.58083
4.2929
4.03048
3.78686
3.55975
3.34882
3.15204
2.96941
2.80063
2.64475
2.50087
2.36817
2.24583
2.13303
2.02895
1.93285
1.844
1.76179
1.68567
1.61516
1.54987
1.48944
1.43356
1.38196
1.33438
1.2906
1.25041
1.21359
1.17999
1.14942
1.12169
1.09665
1.07422
1.05424
1.0366
1.02114
1.00775
0.996425
0.98748
0.981281
0.982571
0.987554
0.999877
1.02706
1.08515
1.19928
1.36293
1.64596
1.92379
2.03898
2.09318
2.09804
2.08578
2.05936
2.02915
1.99763
1.96581
1.93275
1.89811
1.86271
1.82728
1.79256
1.75881
1.72645
1.69553
1.66638
1.63878
1.61306
1.58872
1.56624
1.54491
1.52535
1.50675
1.48982
1.47363
1.459
1.445
1.43243
1.42043
1.40972
1.39955
1.39054
1.38205
1.37457
1.36763
1.36152
1.35603
1.35112
1.34698
1.34304
1.34023
1.33688
1.33549
1.33253
4.39761
5.50885
5.65764
5.58714
5.4059
5.05221
4.7147
4.41604
4.14861
3.90349
3.67592
3.46412
3.26731
3.08414
2.9129
2.75389
2.60695
2.47116
2.34556
2.22937
2.1218
2.02216
1.92976
1.84403
1.7644
1.69042
1.62167
1.55781
1.49852
1.44352
1.39257
1.34542
1.30185
1.26164
1.22458
1.19055
1.15931
1.13074
1.10468
1.08105
1.05983
1.04098
1.02457
1.01178
1.00627
1.00917
1.02033
1.04745
1.10634
1.22102
1.39819
1.6985
2.00147
2.11916
2.17901
2.17548
2.15764
2.12793
2.0931
2.05862
2.02193
1.98301
1.94292
1.90265
1.86294
1.8244
1.78737
1.75209
1.71858
1.68696
1.6571
1.62913
1.60271
1.57812
1.55478
1.53319
1.51259
1.49365
1.47552
1.45894
1.44304
1.42858
1.41473
1.40219
1.39024
1.37949
1.36931
1.36021
1.35168
1.34411
1.33714
1.33094
1.32542
1.32043
1.31629
1.31229
1.30948
1.30612
1.30471
1.30166
2.71494
4.78112
5.45449
5.49559
5.40795
5.19955
4.86027
4.54662
4.27007
4.02098
3.79205
3.57914
3.38088
3.1957
3.02341
2.86316
2.71293
2.57359
2.44476
2.32543
2.21472
2.11189
2.01625
1.92726
1.84437
1.76716
1.6952
1.62815
1.56569
1.50755
1.45346
1.40319
1.35652
1.31321
1.27308
1.23591
1.20157
1.16988
1.14073
1.11405
1.09011
1.06931
1.0525
1.05266
1.06016
1.08103
1.13644
1.24626
1.42747
1.73803
2.06578
2.19718
2.26623
2.25905
2.23586
2.19994
2.15921
2.11881
2.0756
2.0306
1.9855
1.94133
1.89859
1.85762
1.81855
1.78148
1.74637
1.71315
1.68169
1.65198
1.62383
1.59731
1.5721
1.54845
1.52584
1.50477
1.48451
1.46577
1.44773
1.43112
1.41515
1.40052
1.38651
1.37373
1.36159
1.35056
1.34018
1.33083
1.32212
1.31432
1.30721
1.30084
1.29523
1.29014
1.28595
1.28193
1.27911
1.2758
1.27437
1.27124
1.90686
3.18638
4.93911
5.36001
5.35057
5.25332
5.03076
4.70316
4.40636
4.1458
3.91117
3.69579
3.49493
3.30762
3.13344
2.97029
2.81884
2.67753
2.54502
2.4221
2.30806
2.20213
2.10344
2.01139
1.92546
1.84522
1.77024
1.70021
1.63477
1.57368
1.51665
1.46347
1.4139
1.36774
1.32477
1.28483
1.2477
1.21346
1.18203
1.15334
1.1305
1.11555
1.1201
1.13943
1.1851
1.28506
1.46673
1.78549
2.14545
2.29829
2.3724
2.36397
2.33494
2.28586
2.23477
2.18469
2.13316
2.0814
2.03103
1.98284
1.93714
1.894
1.85326
1.81473
1.77825
1.74371
1.71091
1.67974
1.65002
1.62176
1.59476
1.56914
1.54459
1.5214
1.49909
1.47814
1.45795
1.4391
1.42096
1.4041
1.38794
1.37299
1.35873
1.34561
1.33318
1.32181
1.31117
1.30148
1.29255
1.28445
1.27717
1.27058
1.26484
1.25963
1.25536
1.25131
1.24846
1.24521
1.24374
1.24049
1.4626
2.15407
3.72579
4.99455
5.24095
5.21526
5.10552
4.86916
4.56036
4.28197
4.0364
3.81483
3.6117
3.42219
3.24449
3.07885
2.92444
2.7799
2.64568
2.52024
2.40279
2.29335
2.19152
2.09649
2.00764
1.92452
1.84668
1.77382
1.70557
1.64169
1.5819
1.52597
1.47369
1.42487
1.37933
1.33701
1.29769
1.26207
1.23104
1.20483
1.20523
1.21814
1.25343
1.34396
1.51899
1.84541
2.24759
2.44041
2.51964
2.50679
2.47039
2.40726
2.33793
2.27503
2.21182
2.15047
2.09238
2.03802
1.98724
1.93974
1.89575
1.85479
1.81607
1.77926
1.74441
1.71139
1.67984
1.64972
1.62084
1.59327
1.56681
1.54159
1.51735
1.49432
1.47214
1.45118
1.431
1.41201
1.39379
1.37671
1.36039
1.34518
1.3307
1.31729
1.30462
1.29294
1.28206
1.27207
1.26293
1.25456
1.24709
1.2403
1.23442
1.22908
1.22473
1.22064
1.21774
1.21454
1.21298
1.20959
1.23125
1.56525
2.35882
4.09541
4.96589
5.11953
5.0812
4.96254
4.71598
4.42854
4.16861
3.93789
3.72907
3.53666
3.35741
3.18931
3.03173
2.8843
2.74668
2.61792
2.49817
2.38594
2.28079
2.18262
2.09086
2.00493
1.92437
1.84883
1.77793
1.71143
1.64904
1.59056
1.53581
1.48466
1.43701
1.39355
1.35368
1.32195
1.30684
1.31475
1.3481
1.427
1.58863
1.90755
2.36396
2.62491
2.71236
2.69639
2.6504
2.57241
2.48979
2.41001
2.33302
2.26066
2.19327
2.13009
2.0708
2.01536
1.96338
1.91474
1.86911
1.82634
1.78661
1.7494
1.71487
1.68225
1.65102
1.62124
1.59262
1.5653
1.53901
1.51391
1.48976
1.46675
1.44463
1.42361
1.40344
1.38433
1.36606
1.34882
1.3324
1.31699
1.30238
1.28874
1.27592
1.26401
1.25295
1.24274
1.23342
1.22484
1.21724
1.21028
1.20429
1.19886
1.19445
1.19033
1.18739
1.18425
1.18264
1.17911
1.10978
1.26618
1.64843
2.50119
4.25812
4.89882
4.99753
4.95017
4.82591
4.57446
4.30772
4.06615
3.84916
3.65182
3.46933
3.29886
3.13913
2.98941
2.84899
2.71744
2.59424
2.47905
2.37146
2.27016
2.17525
2.08644
2.0032
1.92509
1.85171
1.78279
1.71806
1.65736
1.6007
1.54822
1.50005
1.46098
1.42935
1.4344
1.46153
1.52562
1.67565
1.96999
2.48018
2.84343
2.95026
2.93373
2.87674
2.78218
2.68318
2.58868
2.49625
2.40925
2.33012
2.25575
2.18653
2.12225
2.06207
2.00584
1.95292
1.90346
1.85651
1.81233
1.77033
1.73104
1.69379
1.65941
1.62702
1.5964
1.56709
1.53923
1.51249
1.48703
1.4626
1.43934
1.41703
1.39582
1.37551
1.35623
1.33783
1.32042
1.30388
1.28831
1.27358
1.25979
1.24684
1.23479
1.2236
1.21325
1.20382
1.19511
1.18743
1.18037
1.17433
1.16886
1.16444
1.16036
1.15742
1.15443