/*--------------------------------*- C++ -*----------------------------------*\
  =========                 |
  \\      /  F ield         | OpenFOAM: The Open Source CFD Toolbox
   \\    /   O peration     | Website:  https://openfoam.org
    \\  /    A nd           | Version:  13
     \\/     M anipulation  |
\*---------------------------------------------------------------------------*/
FoamFile
{
    format      ascii;
    class       surfaceScalarField;
    location    "1";
    object      phi;
}
// * * * * * * * * * * * * * * * * * * * * * * * * * * * * * * * * * * * * * //

dimensions      [1 0 -1 0 0 0 0];

internalField   nonuniform List<scalar> 
10325
(
0.0840003
2.37196e-10
0.0840004
9.04631e-10
0.0840002
4.34291e-09
0.0840005
8.81553e-09
0.0839993
3.24172e-08
0.084002
5.74379e-08
0.0839934
2.28689e-07
0.0840119
3.43636e-07
0.0839592
1.59935e-06
0.0840531
2.19442e-06
0.0838285
1.01375e-05
0.0840266
1.81383e-05
0.0835271
6.61236e-05
0.0832628
0.000198261
0.0812854
0.000779135
0.0738714
0.00405299
0.0678954
0.00679661
0.0619067
0.00650596
0.0552412
0.00691358
0.0477711
0.00754411
0.0392928
0.00831792
0.0302267
0.00903552
0.0205967
0.00956599
0.0104663
0.00990253
0.00981936
0.0840003
2.88267e-10
0.0840004
2.47895e-09
0.0840001
6.59271e-09
0.0840008
2.43329e-08
0.083999
5.02535e-08
0.084003
1.67432e-07
0.0839926
3.13066e-07
0.0840143
1.11503e-06
0.0839595
1.87754e-06
0.0840508
7.175e-06
0.0838474
1.30687e-05
0.0840148
4.47792e-05
0.08356
0.000114843
0.0833069
0.000384163
0.0814913
0.00144161
0.0749355
0.00734976
0.0686643
0.013752
0.0623217
0.0133179
0.0554751
0.0139882
0.0479148
0.015168
0.0392833
0.0167619
0.0301053
0.018157
0.0204177
0.0191768
0.0103008
0.0197904
0.0194787
0.0840003
4.90124e-10
0.0840004
3.05742e-09
0.0840002
1.08188e-08
0.0840005
3.00437e-08
0.0839994
8.08432e-08
0.0840019
2.02708e-07
0.083994
5.17367e-07
0.0840114
1.28471e-06
0.0839632
3.21298e-06
0.0840535
8.14696e-06
0.083847
2.071e-05
0.0840539
5.47288e-05
0.0836111
0.000154271
0.0834832
0.000486798
0.0820603
0.00181112
0.0774895
0.00906983
0.0704962
0.0208968
0.0632927
0.0207881
0.0561237
0.0213263
0.0484472
0.0228827
0.039731
0.0252443
0.030462
0.0273227
0.0206811
0.0288588
0.0104446
0.029798
0.0292995
0.0840003
6.5113e-10
0.0840004
3.9756e-09
0.0840002
1.39757e-08
0.0840005
3.88697e-08
0.0839995
1.04441e-07
0.0840017
2.58953e-07
0.0839945
6.62215e-07
0.0840103
1.61055e-06
0.0839665
4.1339e-06
0.0840494
1.00451e-05
0.0838639
2.5966e-05
0.0840641
6.61657e-05
0.0836889
0.000183258
0.0836668
0.000555886
0.082864
0.00195649
0.0808254
0.00921072
0.0724616
0.0286656
0.0644089
0.0288732
0.0570134
0.0288677
0.049327
0.0305951
0.0406036
0.0336853
0.0312783
0.0365056
0.0213485
0.0386727
0.0108419
0.0400886
0.0395393
0.0840003
7.84431e-10
0.0840004
4.86912e-09
0.0840002
1.69091e-08
0.0840005
4.75898e-08
0.0839995
1.25491e-07
0.0840017
3.17184e-07
0.0839947
7.94756e-07
0.0840104
1.97018e-06
0.0839672
4.88962e-06
0.0840507
1.21798e-05
0.0838657
3.05461e-05
0.0840767
7.84055e-05
0.083706
0.00021314
0.0837186
0.000638656
0.0830215
0.00218977
0.0810552
0.0099909
0.0734294
0.0348853
0.065276
0.0367821
0.0579718
0.0362778
0.0505014
0.0380857
0.0418449
0.0420436
0.0325467
0.045644
0.022497
0.0486034
0.0115691
0.0508108
0.0505289
0.0840003
9.90746e-10
0.0840004
5.31646e-09
0.0840002
2.04773e-08
0.0840005
5.21317e-08
0.0839996
1.51104e-07
0.0840017
3.46669e-07
0.083995
9.61934e-07
0.08401
2.13271e-06
0.0839686
5.94644e-06
0.0840502
1.31531e-05
0.0838682
3.65341e-05
0.084085
8.68263e-05
0.0837153
0.000242769
0.0837626
0.000707616
0.0831913
0.00239815
0.0815301
0.0106312
0.0740441
0.0409546
0.0657993
0.0446604
0.0591706
0.0430656
0.0520294
0.0452827
0.0434975
0.0502329
0.0342904
0.0546747
0.0240461
0.0587065
0.0126036
0.0620272
0.0625701
0.0840003
9.55836e-10
0.0840004
6.7199e-09
0.0840001
2.15547e-08
0.0840007
6.50113e-08
0.0839992
1.60715e-07
0.0840026
4.23827e-07
0.0839939
1.0278e-06
0.084013
2.62671e-06
0.0839663
6.36217e-06
0.084055
1.62248e-05
0.083867
3.95744e-05
0.0840897
0.000102313
0.0837026
0.00027127
0.0837665
0.000794771
0.0831422
0.00263818
0.0817878
0.0111365
0.0740301
0.047311
0.0678911
0.0502963
0.0611962
0.0499947
0.0536565
0.0528676
0.0456496
0.0578275
0.0366888
0.0634282
0.026389
0.0688649
0.014326
0.0739171
0.0763744
0.0840003
1.15654e-09
0.0840004
7.00261e-09
0.0840002
2.49581e-08
0.0840005
6.78584e-08
0.0839995
1.87172e-07
0.0840021
4.54732e-07
0.0839946
1.17632e-06
0.084012
2.8355e-06
0.0839677
7.20957e-06
0.0840579
1.73379e-05
0.0838605
4.45343e-05
0.0841115
0.000110026
0.0836921
0.000297235
0.0837956
0.000851745
0.0833638
0.00282089
0.0822783
0.0113809
0.0755388
0.0523189
0.0696343
0.056089
0.0633517
0.0562941
0.056075
0.0600103
0.0484572
0.0649728
0.0399315
0.0717801
0.0296767
0.07908
0.016995
0.0865129
0.0928916
0.0840003
1.47365e-09
0.0840004
6.66792e-09
0.0840002
2.97809e-08
0.0840006
6.58652e-08
0.0839995
2.1878e-07
0.0840021
4.4675e-07
0.0839951
1.3659e-06
0.0840107
2.81679e-06
0.0839717
8.23107e-06
0.0840479
1.78801e-05
0.0838785
4.94016e-05
0.0840944
0.000117201
0.083705
0.000319739
0.0838434
0.000899398
0.0832818
0.00293566
0.0825933
0.0114556
0.0774472
0.0553648
0.0713234
0.0622394
0.0654308
0.0621793
0.0592099
0.0660543
0.0521993
0.0716911
0.0444321
0.0795489
0.0352639
0.0883178
0.021903
0.0999334
0.114417
0.0840003
1.02707e-09
0.0840003
8.84983e-09
0.0840003
2.44269e-08
0.0840002
8.65248e-08
0.0840004
1.83508e-07
0.0839993
5.78461e-07
0.0840019
1.16735e-06
0.0839919
3.5876e-06
0.0840138
7.30133e-06
0.083953
2.18116e-05
0.0840512
4.65587e-05
0.0838412
0.000132388
0.0839969
0.000323689
0.0836295
0.000942963
0.0834905
0.00298379
0.082848
0.0113279
0.0803104
0.0555569
0.074355
0.0684374
0.068584
0.0680881
0.063437
0.071153
0.0575723
0.0772704
0.0514766
0.08549
0.0430768
0.0966447
0.0300011
0.112907
0.144106
0.0840003
1.42149e-09
0.0840003
6.94782e-09
0.0840003
2.90421e-08
0.0840003
6.79915e-08
0.084
2.17195e-07
0.0840008
4.57708e-07
0.0839975
1.39298e-06
0.0840056
2.89946e-06
0.0839813
8.59624e-06
0.0840332
1.83453e-05
0.083905
5.29062e-05
0.0840842
0.000120909
0.0837633
0.000338102
0.0839169
0.000913957
0.0835479
0.00291107
0.0836525
0.0107486
0.0858394
0.0508573
0.0798494
0.0747331
0.0733386
0.0746627
0.0684021
0.0758658
0.0637789
0.0814878
0.0595239
0.0895753
0.0561648
0.0999756
0.056671
0.11248
0.114797
0.08585
0.0840003
8.81431e-10
0.0840003
7.20429e-09
0.0840003
2.0681e-08
0.0840003
7.09775e-08
0.0840004
1.56906e-07
0.0839997
4.76711e-07
0.0840017
1.01656e-06
0.0839947
2.97412e-06
0.0840122
6.46709e-06
0.0839672
1.8317e-05
0.0840575
4.15378e-05
0.0838796
0.000114038
0.0841093
0.000282181
0.083862
0.000797488
0.0843038
0.00241791
0.0856718
0.00870569
0.0952373
0.0385026
0.0883883
0.0817455
0.0803295
0.082874
0.0754733
0.0806705
0.0716029
0.0852484
0.0687622
0.0923619
0.0683169
0.100532
0.0729957
0.108087
0.106178
0.0818288
0.0840003
1.01805e-09
0.0840003
5.22925e-09
0.0840003
2.12631e-08
0.0840004
5.11948e-08
0.084
1.57187e-07
0.084001
3.48081e-07
0.0839983
9.87959e-07
0.0840052
2.21733e-06
0.0839877
5.98253e-06
0.0840312
1.4003e-05
0.0839385
3.62257e-05
0.0841217
8.88481e-05
0.0838655
0.000227714
0.0842871
0.000606675
0.0844822
0.00176227
0.0868902
0.00594247
0.0991646
0.0247617
0.0945978
0.08567
0.089589
0.087536
0.0829048
0.0871249
0.0791878
0.0885864
0.0776436
0.0935752
0.079113
0.0989335
0.0847141
0.102643
0.10057
0.0905668
0.0840003
7.432e-10
0.0840003
5.28037e-09
0.0840004
1.64142e-08
0.0840002
5.16312e-08
0.0840006
1.23837e-07
0.0839995
3.36919e-07
0.0840022
8.04975e-07
0.0839961
2.04727e-06
0.0840101
5.08723e-06
0.0839784
1.23189e-05
0.0840424
3.19103e-05
0.0839202
7.54223e-05
0.084107
0.000200401
0.0838815
0.000509321
0.0842666
0.00147287
0.0849836
0.00474919
0.0901407
0.0187276
0.0952668
0.0783404
0.0922665
0.0901486
0.0876663
0.0914257
0.0850739
0.0909854
0.0845856
0.0938499
0.0863009
0.0970618
0.0909789
0.0980312
0.0953973
0.0963348
0.0840003
7.12638e-10
0.0840003
4.30488e-09
0.0840003
1.54962e-08
0.0840004
4.22234e-08
0.0840001
1.1527e-07
0.0840009
2.88417e-07
0.0839991
7.21895e-07
0.084003
1.84013e-06
0.0839943
4.37793e-06
0.0840108
1.15791e-05
0.083974
2.6649e-05
0.0840361
7.25137e-05
0.0839158
0.000170964
0.0840662
0.000467392
0.0839412
0.00127544
0.0845028
0.00405951
0.0873118
0.0151439
0.0968452
0.0666236
0.0954056
0.0916009
0.0926031
0.0941319
0.0903418
0.0931244
0.0902774
0.0938875
0.0919172
0.0955007
0.0953347
0.0948251
0.0913118
0.0996542
0.0840003
6.01533e-10
0.0840003
3.55083e-09
0.0840004
1.27426e-08
0.0840003
3.48856e-08
0.0840005
9.57954e-08
0.084
2.32346e-07
0.0840011
6.18692e-07
0.083999
1.44548e-06
0.0840024
3.89751e-06
0.0839971
8.92366e-06
0.0840023
2.43798e-05
0.0839945
5.62122e-05
0.0840136
0.000152473
0.0839994
0.00037675
0.0841644
0.00105884
0.0847236
0.00318366
0.0880212
0.0113994
0.104073
0.0478647
0.101479
0.0940049
0.0987955
0.0967152
0.0957211
0.0961554
0.0954216
0.0940537
0.0967826
0.0940787
0.0990893
0.0924696
0.0884837
0.102118
0.0840003
4.12124e-10
0.0840003
3.02384e-09
0.0840003
9.33416e-09
0.0840003
2.9634e-08
0.0840003
7.02482e-08
0.0840002
1.96818e-07
0.0840008
4.49558e-07
0.0839991
1.21759e-06
0.0840045
2.80047e-06
0.0839918
7.38308e-06
0.0840283
1.74183e-05
0.0839579
4.48869e-05
0.0841336
0.000109449
0.0839454
0.000281754
0.084475
0.00073736
0.0850711
0.00212437
0.0893178
0.00698797
0.108145
0.0277097
0.107992
0.0930203
0.105919
0.098575
0.10234
0.099575
0.10023
0.096095
0.100591
0.0936885
0.102034
0.0909769
0.0866517
0.103989
0.0840003
3.62773e-10
0.0840003
2.25437e-09
0.0840003
7.91467e-09
0.0840004
2.22231e-08
0.0840002
5.89544e-08
0.0840006
1.5013e-07
0.0839998
3.72352e-07
0.0840019
9.45988e-07
0.0839974
2.27704e-06
0.0840092
5.87038e-06
0.0839855
1.3905e-05
0.0840412
3.61929e-05
0.0839507
8.625e-05
0.08414
0.000225485
0.084006
0.000572285
0.08461
0.00161423
0.086054
0.00507095
0.0935427
0.0194332
0.108945
0.075391
0.109018
0.0983473
0.107046
0.101441
0.10466
0.0984546
0.104371
0.0938782
0.105083
0.0901621
0.0856343
0.106091
0.0840003
3.00321e-10
0.0840003
1.64333e-09
0.0840003
6.35067e-09
0.0840003
1.61892e-08
0.0840003
4.74711e-08
0.0840004
1.0946e-07
0.0840001
3.0263e-07
0.0840012
6.90194e-07
0.0839983
1.86786e-06
0.0840071
4.3228e-06
0.0839873
1.14384e-05
0.0840421
2.72288e-05
0.083939
7.04357e-05
0.0841641
0.000174309
0.0839283
0.00045385
0.0845148
0.00122997
0.0853242
0.00372041
0.0910868
0.013257
0.111974
0.0518273
0.112663
0.0973924
0.111949
0.101833
0.109394
0.100903
0.107777
0.0955253
0.107561
0.0903181
0.085217
0.107951
0.0840003
1.91362e-10
0.0840003
1.33165e-09
0.0840003
4.28995e-09
0.0840003
1.30983e-08
0.0840004
3.23175e-08
0.0840002
8.75139e-08
0.0840007
2.0633e-07
0.0839997
5.45555e-07
0.0840028
1.27676e-06
0.0839969
3.34528e-06
0.0840145
7.90004e-06
0.0839845
2.03749e-05
0.0840707
4.90594e-05
0.0839646
0.000125192
0.0842872
0.000311769
0.0843045
0.00082547
0.0857904
0.00233015
0.0909505
0.00756804
0.113123
0.0285867
0.118172
0.0911057
0.117492
0.102316
0.115038
0.103286
0.112021
0.0986807
0.110915
0.091462
0.0856616
0.110449
0.0840003
1.52633e-10
0.0840003
9.67271e-10
0.0840003
3.27607e-09
0.0840003
9.47881e-09
0.0840004
2.45633e-08
0.0840003
6.28628e-08
0.0840005
1.59017e-07
0.0840003
3.86959e-07
0.0840007
9.96997e-07
0.0840012
2.35778e-06
0.0840001
6.18744e-06
0.0840105
1.44147e-05
0.0839938
3.82818e-05
0.0840648
8.96653e-05
0.0840189
0.000237818
0.0843
0.000591735
0.0846943
0.00165145
0.0870078
0.0050515
0.0961147
0.0187237
0.118053
0.0665975
0.120216
0.0997226
0.119097
0.103939
0.115538
0.102045
0.113959
0.0929601
0.0869033
0.11268
0.0840003
1.04905e-10
0.0840003
6.70205e-10
0.0840003
2.30622e-09
0.0840003
6.61351e-09
0.0840003
1.72349e-08
0.0840004
4.44979e-08
0.0840003
1.08729e-07
0.0840007
2.77952e-07
0.0840001
6.65612e-07
0.0840021
1.70535e-06
0.0840007
4.04525e-06
0.0840062
1.04302e-05
0.0840107
2.46821e-05
0.0840294
6.36128e-05
0.0840755
0.000153876
0.0842272
0.000397779
0.0846264
0.00104103
0.0863885
0.00301605
0.0940945
0.0101336
0.12026
0.0369903
0.123788
0.0955749
0.124522
0.103294
0.122901
0.1038
0.1182
0.0979582
0.0894704
0.115721
0.0840003
7.68162e-11
0.0840003
4.46416e-10
0.0840003
1.64256e-09
0.0840003
4.39705e-09
0.0840003
1.229e-08
0.0840004
2.95349e-08
0.0840003
7.8318e-08
0.0840006
1.84203e-07
0.0839999
4.82071e-07
0.0840025
1.13047e-06
0.0839981
2.93761e-06
0.0840125
6.94086e-06
0.0839901
1.77843e-05
0.084063
4.27808e-05
0.0839747
0.000108429
0.0842598
0.000268364
0.0842304
0.000696047
0.0854352
0.00190715
0.0890128
0.00593226
0.10322
0.0218642
0.125082
0.0717081
0.127467
0.10069
0.126791
0.104161
0.121788
0.102652
0.0921181
0.118958
0.0840003
4.68868e-11
0.0840003
3.14823e-10
0.0840003
1.05238e-09
0.0840003
3.08406e-09
0.0840003
7.88222e-09
0.0840004
2.06094e-08
0.0840003
4.97949e-08
0.0840004
1.28989e-07
0.0840004
3.03276e-07
0.0840007
7.94694e-07
0.0840016
1.84163e-06
0.0840009
4.85446e-06
0.0840118
1.12429e-05
0.0839994
2.9557e-05
0.0840726
6.93509e-05
0.0840376
0.000181172
0.0843539
0.000444518
0.084737
0.00120301
0.0870225
0.00345229
0.0962474
0.0118322
0.123534
0.0411677
0.129008
0.0943902
0.130471
0.102681
0.128944
0.104214
0.0972479
0.123922
0.0840003
3.42441e-11
0.0840003
1.98315e-10
0.0840003
7.28275e-10
0.0840003
1.95352e-09
0.0840003
5.43369e-09
0.0840003
1.30391e-08
0.0840003
3.45865e-08
0.0840004
8.06215e-08
0.0840003
2.12916e-07
0.084001
4.9279e-07
0.0839999
1.29659e-06
0.0840049
3.01642e-06
0.083997
7.85447e-06
0.0840304
1.85745e-05
0.0839844
4.76425e-05
0.0841621
0.000115232
0.0840295
0.000294456
0.0847246
0.000747116
0.0855056
0.00206504
0.0909383
0.00638138
0.107996
0.0228378
0.130334
0.0699743
0.132048
0.100702
0.133166
0.102713
0.101773
0.128477
0.0840003
1.93764e-11
0.0840003
1.34892e-10
0.0840003
4.36238e-10
0.0840003
1.32525e-09
0.0840003
3.2709e-09
0.0840003
8.80869e-09
0.0840003
2.06717e-08
0.0840003
5.45907e-08
0.0840005
1.26629e-07
0.0840003
3.31449e-07
0.0840016
7.72736e-07
0.0839996
1.99795e-06
0.084009
4.72016e-06
0.0839956
1.20199e-05
0.0840528
2.89145e-05
0.0839864
7.2693e-05
0.0842575
0.000179309
0.0841608
0.000454669
0.0852434
0.00119623
0.0874554
0.00343678
0.0979603
0.011594
0.125969
0.0385338
0.134279
0.0917651
0.136211
0.100937
0.103932
0.13417
0.0840003
1.33425e-11
0.0840003
7.97952e-11
0.0840003
2.89742e-10
0.0840003
7.86554e-10
0.0840003
2.1668e-09
0.0840003
5.26306e-09
0.0840003
1.37197e-08
0.0840004
3.27037e-08
0.0840003
8.35214e-08
0.0840007
2.01068e-07
0.0840001
5.03616e-07
0.0840026
1.23138e-06
0.0839992
3.03988e-06
0.0840133
7.52761e-06
0.0839963
1.83914e-05
0.0840697
4.61785e-05
0.0840066
0.000112398
0.0843204
0.000286846
0.084415
0.000722578
0.0859508
0.00198583
0.090862
0.00605151
0.107515
0.0210041
0.133521
0.0633631
0.135871
0.0982974
0.100597
0.139043
0.0840003
7.87548e-12
0.0840003
4.97646e-11
0.0840003
1.72182e-10
0.0840003
4.90801e-10
0.0840003
1.28869e-09
0.0840003
3.28003e-09
0.0840003
8.17578e-09
0.0840003
2.02945e-08
0.0840004
5.02369e-08
0.0840004
1.23125e-07
0.0840006
3.05599e-07
0.084001
7.43212e-07
0.084001
1.84916e-06
0.0840063
4.48203e-06
0.0840015
1.11491e-05
0.0840427
2.70548e-05
0.0840125
6.73335e-05
0.0842441
0.000165088
0.084248
0.000416261
0.0853274
0.00107422
0.0876993
0.00301858
0.0981323
0.00976034
0.12731
0.0312816
0.139373
0.0855509
0.0995268
0.140297
0.0840003
4.75485e-12
0.0840003
2.95567e-11
0.0840003
1.03449e-10
0.0840003
2.91539e-10
0.0840003
7.74516e-10
0.0840003
1.94276e-09
0.0840003
4.92374e-09
0.0840003
1.20083e-08
0.0840004
3.02837e-08
0.0840004
7.29254e-08
0.0840005
1.84598e-07
0.0840007
4.41596e-07
0.0840008
1.11911e-06
0.0840037
2.6754e-06
0.0840011
6.75356e-06
0.0840244
1.62519e-05
0.084005
4.07306e-05
0.0841425
9.94015e-05
0.0840954
0.000249308
0.084718
0.000629298
0.0855074
0.00168156
0.0901998
0.00498964
0.103663
0.016836
0.13435
0.0518738
0.0929537
0.140129
0.0840003
2.72586e-12
0.0840003
1.75097e-11
0.0840003
5.97133e-11
0.0840003
1.73117e-10
0.0840003
4.48383e-10
0.0840003
1.15e-09
0.0840003
2.85829e-09
0.0840003
7.09513e-09
0.0840004
1.7619e-08
0.0840003
4.30817e-08
0.0840005
1.07817e-07
0.0840003
2.60868e-07
0.0840013
6.55989e-07
0.0840009
1.57952e-06
0.0840046
3.98977e-06
0.0840074
9.54027e-06
0.0840189
2.42163e-05
0.0840563
5.78687e-05
0.0841146
0.000147063
0.0843665
0.000359241
0.0849661
0.000930961
0.0872313
0.00252202
0.0956765
0.00784519
0.121352
0.0252105
0.0712609
0.141083
0.0840003
1.51954e-12
0.0840003
1.00994e-11
0.0840003
3.37975e-11
0.0840003
9.96181e-11
0.0840003
2.5337e-10
0.0840003
6.62913e-10
0.0840003
1.60766e-09
0.0840003
4.08919e-09
0.0840003
9.85675e-09
0.0840003
2.47921e-08
0.0840004
6.00173e-08
0.0840003
1.49337e-07
0.084001
3.64252e-07
0.0840003
8.98188e-07
0.0840045
2.20519e-06
0.0840013
5.38833e-06
0.0840236
1.33382e-05
0.0840111
3.23792e-05
0.0841195
8.08671e-05
0.0841303
0.000197284
0.0846354
0.00050194
0.0853847
0.00129779
0.0893337
0.00371311
0.10122
0.0120914
0.0368362
0.131634
0.0840003
8.57175e-13
0.0840003
5.61396e-12
0.0840003
1.91388e-11
0.0840003
5.5375e-11
0.0840003
1.4325e-10
0.0840003
3.69725e-10
0.0840003
9.02253e-10
0.0840003
2.28989e-09
0.0840003
5.49339e-09
0.0840003
1.39145e-08
0.0840004
3.32399e-08
0.0840004
8.40328e-08
0.0840006
2.01277e-07
0.0840004
5.04894e-07
0.0840026
1.2205e-06
0.0840004
3.02798e-06
0.0840147
7.39333e-06
0.0840013
1.8197e-05
0.0840832
4.4911e-05
0.0840297
0.000110127
0.0844145
0.000276824
0.0845543
0.000695262
0.0865128
0.00187316
0.0922532
0.0055636
0.0180982
0.110122
0.0840003
4.82652e-13
0.0840003
3.05372e-12
0.0840003
1.06859e-11
0.0840003
3.00772e-11
0.0840003
8.00248e-11
0.0840003
2.00471e-10
0.0840003
5.03702e-10
0.0840003
1.24378e-09
0.0840003
3.04953e-09
0.0840003
7.58961e-09
0.0840003
1.83576e-08
0.0840004
4.60979e-08
0.0840004
1.10326e-07
0.0840006
2.7957e-07
0.084001
6.63886e-07
0.0840014
1.6903e-06
0.0840061
4.0077e-06
0.0840043
1.01834e-05
0.0840401
2.42745e-05
0.0840262
6.13944e-05
0.0842369
0.000148439
0.0842827
0.000375773
0.0853595
0.000950458
0.0877036
0.00259915
0.00795956
0.0975794
0.0840003
2.71129e-13
0.0840003
1.61664e-12
0.0840003
5.87739e-12
0.0840003
1.59606e-11
0.0840003
4.37907e-11
0.0840003
1.06364e-10
0.0840003
2.76214e-10
0.0840003
6.5565e-10
0.0840003
1.68023e-09
0.0840003
3.97614e-09
0.0840003
1.01082e-08
0.0840004
2.4079e-08
0.0840003
6.052e-08
0.0840006
1.4581e-07
0.0840004
3.61399e-07
0.0840021
8.81164e-07
0.084001
2.15308e-06
0.0840104
5.32065e-06
0.0840068
1.28091e-05
0.084055
3.20321e-05
0.0840552
7.66268e-05
0.0842875
0.000194147
0.0844987
0.000472106
0.0858143
0.00124296
0.00344211
0.0895819
0.0840003
1.31074e-13
0.0840003
8.94425e-13
0.0840003
2.94912e-12
0.0840003
8.83514e-12
0.0840003
2.21075e-11
0.0840003
5.84939e-11
0.0840003
1.40218e-10
0.0840003
3.57504e-10
0.0840003
8.58557e-10
0.0840003
2.14331e-09
0.0840003
5.21401e-09
0.0840003
1.27622e-08
0.0840004
3.16053e-08
0.0840004
7.58645e-08
0.0840006
1.90959e-07
0.0840008
4.51038e-07
0.0840014
1.14886e-06
0.0840043
2.68716e-06
0.0840042
6.87374e-06
0.0840289
1.60678e-05
0.08402
4.1041e-05
0.0841774
9.67645e-05
0.0841608
0.000247895
0.0849711
0.000605385
0.00161976
0.0860443
0.0840003
7.21393e-14
0.0840003
4.50114e-13
0.0840003
1.57785e-12
0.0840003
4.43848e-12
0.0840003
1.17817e-11
0.0840003
2.9571e-11
0.0840003
7.38402e-11
0.0840003
1.82769e-10
0.0840003
4.45054e-10
0.0840003
1.10891e-09
0.0840003
2.66197e-09
0.0840003
6.68169e-09
0.0840003
1.58725e-08
0.0840004
4.01803e-08
0.0840005
9.47776e-08
0.0840005
2.40285e-07
0.0840013
5.67924e-07
0.084001
1.43341e-06
0.0840068
3.41031e-06
0.0840035
8.52905e-06
0.0840411
2.05576e-05
0.0840223
5.09352e-05
0.0842316
0.000124693
0.0842338
0.000309989
0.000784842
0.0852311
0.0840003
3.80468e-14
0.0840003
2.25567e-13
0.0840003
8.16033e-13
0.0840003
2.21795e-12
0.0840003
6.06423e-12
0.0840003
1.47235e-11
0.0840003
3.81777e-11
0.0840003
9.02892e-11
0.0840003
2.31411e-10
0.0840003
5.44591e-10
0.0840003
1.38319e-09
0.0840003
3.27977e-09
0.0840003
8.23598e-09
0.0840004
1.97247e-08
0.0840003
4.89287e-08
0.0840006
1.18848e-07
0.0840005
2.90259e-07
0.0840016
7.15289e-07
0.0840017
1.72414e-06
0.0840066
4.30445e-06
0.0840119
1.02453e-05
0.0840307
2.59063e-05
0.0840825
6.12949e-05
0.0841837
0.000156317
0.000376367
0.0845376
0.0840003
1.74158e-14
0.0840003
1.15695e-13
0.0840003
3.86423e-13
0.0840003
1.14448e-12
0.0840003
2.90154e-12
0.0840003
7.54787e-12
0.0840003
1.83547e-11
0.0840003
4.60638e-11
0.0840003
1.11646e-10
0.0840003
2.75769e-10
0.0840003
6.73636e-10
0.0840003
1.64096e-09
0.0840003
4.0494e-09
0.0840003
9.76461e-09
0.0840004
2.42854e-08
0.0840004
5.80769e-08
0.0840005
1.45535e-07
0.0840008
3.45727e-07
0.0840012
8.68763e-07
0.0840038
2.06317e-06
0.0840044
5.17432e-06
0.0840237
1.23214e-05
0.0840237
3.07299e-05
0.084147
7.38925e-05
0.000183492
0.0841696
0.0840003
7.41985e-15
0.0840003
5.426e-14
0.0840003
1.91446e-13
0.0840003
5.45061e-13
0.0840003
1.42175e-12
0.0840003
3.64251e-12
0.0840003
8.89042e-12
0.0840003
2.24458e-11
0.0840003
5.35385e-11
0.0840003
1.35587e-10
0.0840003
3.19923e-10
0.0840003
8.13139e-10
0.0840003
1.91049e-09
0.0840003
4.84691e-09
0.0840004
1.1443e-08
0.0840003
2.87922e-08
0.0840005
6.85203e-08
0.0840004
1.70556e-07
0.0840012
4.10728e-07
0.0840011
1.00625e-06
0.084005
2.45734e-06
0.0840066
5.92157e-06
0.0840234
1.46741e-05
0.0840482
3.48216e-05
8.75412e-05
0.0841176
0.0840003
4.21386e-15
0.0840003
2.48063e-14
0.0840003
8.73663e-14
0.0840003
2.50981e-13
0.0840003
6.8364e-13
0.0840003
1.68915e-12
0.0840003
4.32947e-12
0.0840003
1.03658e-11
0.0840003
2.62589e-11
0.0840003
6.22794e-11
0.0840003
1.57228e-10
0.0840003
3.73085e-10
0.0840003
9.3595e-10
0.0840003
2.23693e-09
0.0840003
5.5482e-09
0.0840004
1.33955e-08
0.0840003
3.28317e-08
0.0840005
8.0068e-08
0.0840005
1.9384e-07
0.0840013
4.76663e-07
0.0840015
1.14401e-06
0.084005
2.82729e-06
0.0840093
6.73346e-06
0.0840231
1.6741e-05
3.97444e-05
0.0840621
0.0840003
1.73125e-15
0.0840003
1.01802e-14
0.0840003
4.23849e-14
0.0840003
1.18378e-13
0.0840003
3.09708e-13
0.0840003
8.07173e-13
0.0840003
1.96059e-12
0.0840003
4.93518e-12
0.0840003
1.19246e-11
0.0840003
2.95675e-11
0.0840003
7.19343e-11
0.0840003
1.75336e-10
0.0840003
4.32265e-10
0.0840003
1.03856e-09
0.0840003
2.59016e-09
0.0840003
6.13942e-09
0.0840003
1.54545e-08
0.0840004
3.63449e-08
0.0840004
9.16129e-08
0.0840008
2.1558e-07
0.0840008
5.39233e-07
0.0840031
1.2797e-06
0.0840028
3.16419e-06
0.0840168
7.59447e-06
1.85457e-05
0.0840164
0.0840003
5.35379e-16
0.0840003
5.85122e-15
0.0840003
1.79698e-14
0.0840003
5.3928e-14
0.0840003
1.40875e-13
0.0840003
3.58112e-13
0.0840003
8.98455e-13
0.0840003
2.23037e-12
0.0840003
5.43488e-12
0.0840003
1.35083e-11
0.0840003
3.24082e-11
0.0840003
8.11853e-11
0.0840003
1.92237e-10
0.0840003
4.85002e-10
0.0840003
1.14123e-09
0.0840003
2.88303e-09
0.0840003
6.77994e-09
0.0840003
1.70323e-08
0.0840004
4.03003e-08
0.0840004
1.00241e-07
0.0840009
2.39382e-07
0.0840009
5.87688e-07
0.0840033
1.42106e-06
0.0840039
3.44497e-06
8.43043e-06
0.084016
0.0840003
1.12779e-15
0.0840003
1.89952e-15
0.0840003
7.04406e-15
0.0840003
2.10435e-14
0.0840003
6.2946e-14
0.0840003
1.56727e-13
0.0840003
4.01245e-13
0.0840003
9.78214e-13
0.0840003
2.46567e-12
0.0840003
5.88055e-12
0.0840003
1.48399e-11
0.0840003
3.50823e-11
0.0840003
8.85904e-11
0.0840003
2.08871e-10
0.0840003
5.25694e-10
0.0840003
1.24298e-09
0.0840003
3.1029e-09
0.0840003
7.39275e-09
0.0840003
1.82619e-08
0.0840004
4.38872e-08
0.0840004
1.07114e-07
0.0840009
2.60346e-07
0.0840011
6.27783e-07
0.0840032
1.54175e-06
3.67747e-06
0.0840054
0.0840003
-7.62411e-16
0.0840003
1.50661e-15
0.0840003
3.81683e-15
0.0840003
1.03481e-14
0.0840003
2.47038e-14
0.0840003
6.9449e-14
0.0840003
1.7043e-13
0.0840003
4.34706e-13
0.0840003
1.04534e-12
0.0840003
2.6408e-12
0.0840003
6.25585e-12
0.0840003
1.58011e-11
0.0840003
3.74199e-11
0.0840003
9.36919e-11
0.0840003
2.23409e-10
0.0840003
5.52698e-10
0.0840003
1.33148e-09
0.0840003
3.24868e-09
0.0840003
7.91416e-09
0.0840004
1.90489e-08
0.0840004
4.69229e-08
0.0840005
1.1159e-07
0.0840007
2.77359e-07
0.0840015
6.54353e-07
1.63672e-06
0.0840024
0.0840003
3.64942e-16
0.0840003
1.0571e-15
0.0840003
1.90277e-15
0.0840003
4.13645e-15
0.0840003
1.05764e-14
0.0840003
2.84681e-14
0.0840003
7.20669e-14
0.0840003
1.7816e-13
0.0840003
4.50255e-13
0.0840003
1.08947e-12
0.0840003
2.7415e-12
0.0840003
6.55304e-12
0.0840003
1.63456e-11
0.0840003
3.92056e-11
0.0840003
9.67377e-11
0.0840003
2.34198e-10
0.0840003
5.68984e-10
0.0840003
1.39508e-09
0.0840003
3.33698e-09
0.0840003
8.27359e-09
0.0840004
1.95595e-08
0.0840004
4.88173e-08
0.0840006
1.14784e-07
0.0840007
2.87269e-07
6.74568e-07
0.0840018
0.0840003
-3.28947e-16
0.0840003
-9.71445e-17
0.0840003
6.27319e-16
0.0840003
2.62203e-15
0.0840003
5.81653e-15
0.0840003
1.23467e-14
0.0840003
3.2621e-14
0.0840003
7.44745e-14
0.0840003
1.8814e-13
0.0840003
4.59929e-13
0.0840003
1.12477e-12
0.0840003
2.75661e-12
0.0840003
6.74974e-12
0.0840003
1.64052e-11
0.0840003
4.02919e-11
0.0840003
9.69546e-11
0.0840003
2.40241e-10
0.0840003
5.70301e-10
0.0840003
1.42474e-09
0.0840003
3.35252e-09
0.0840003
8.39754e-09
0.0840004
1.97218e-08
0.0840004
4.92438e-08
0.0840006
1.16093e-07
2.88132e-07
0.0840006
0.0840003
2.19226e-16
0.0840003
1.42681e-16
0.0840003
4.8659e-16
0.0840003
1.40794e-15
0.0840003
2.58192e-15
0.0840003
4.77461e-15
0.0840003
1.11595e-14
0.0840003
2.99266e-14
0.0840003
7.38628e-14
0.0840003
1.8754e-13
0.0840003
4.49835e-13
0.0840003
1.12989e-12
0.0840003
2.70341e-12
0.0840003
6.75599e-12
0.0840003
1.60684e-11
0.0840003
4.02512e-11
0.0840003
9.51082e-11
0.0840003
2.38512e-10
0.0840003
5.61949e-10
0.0840003
1.40505e-09
0.0840003
3.31875e-09
0.0840003
8.23182e-09
0.0840004
1.95689e-08
0.0840004
4.80904e-08
1.15293e-07
0.0840006
0.0840003
1.14925e-17
0.0840003
4.58184e-16
0.0840003
6.90854e-16
0.0840003
1.51246e-15
0.0840003
3.51542e-15
0.0840003
5.79354e-15
0.0840003
8.21825e-15
0.0840003
1.54518e-14
0.0840003
3.1318e-14
0.0840003
7.50376e-14
0.0840003
1.83238e-13
0.0840003
4.30961e-13
0.0840003
1.08923e-12
0.0840003
2.57228e-12
0.0840003
6.46872e-12
0.0840003
1.53049e-11
0.0840003
3.82962e-11
0.0840003
9.09642e-11
0.0840003
2.25569e-10
0.0840003
5.38857e-10
0.0840003
1.32451e-09
0.0840003
3.18744e-09
0.0840003
7.73583e-09
0.0840004
1.87928e-08
4.51074e-08
0.0840004
0.0840003
1.31839e-16
0.0840003
7.069e-16
0.0840003
1.46107e-15
0.0840003
2.12894e-15
0.0840003
2.06606e-15
0.0840003
3.17585e-15
0.0840003
5.66387e-15
0.0840003
8.38847e-15
0.0840003
1.48926e-14
0.0840003
2.74522e-14
0.0840003
6.33046e-14
0.0840003
1.54828e-13
0.0840003
3.58354e-13
0.0840003
9.084e-13
0.0840003
2.13127e-12
0.0840003
5.37259e-12
0.0840003
1.27067e-11
0.0840003
3.17153e-11
0.0840003
7.55639e-11
0.0840003
1.86426e-10
0.0840003
4.47861e-10
0.0840003
1.09125e-09
0.0840003
2.65186e-09
0.0840003
6.36048e-09
1.56175e-08
0.0840004
0.0840003
0.0840003
0.0840003
0.0840003
0.0840003
0.0840003
0.0840003
0.0840003
0.0840003
0.0840003
0.0840003
0.0840003
0.0840003
0.0840003
0.0840003
0.0840003
0.0840003
0.0840003
0.0840003
0.0840003
0.0840003
0.0840003
0.0840003
0.0840003
0.0840003
0.0466162
0.0391557
0.0310495
0.0155379
0.024364
0.0066512
0.02172
0.0025798
0.0214686
0.000184961
0.0231526
-0.00178025
0.0250289
-0.00200016
0.0262212
-0.00132504
0.026714
-0.000617363
0.0267326
-0.000140148
0.0264722
0.000139917
0.0262336
0.000132871
0.0261277
-2.77355e-06
0.0261629
-0.000145856
0.0262402
-0.000186013
0.0263271
-0.000197202
0.0264011
-0.000186372
0.0264562
-0.000168974
0.0264969
-0.000156434
0.0265314
-0.000152852
0.0265637
-0.000156093
0.0265956
-0.000161046
0.026627
-0.000164085
0.0266562
-0.000164344
0.0266798
-0.000162115
0.0266943
-0.000158213
0.0266972
-0.000153475
0.0266869
-0.000148542
0.0266638
-0.000143766
0.0266303
-0.000139313
0.0265885
-0.000135366
0.0265392
-0.000131897
0.0264826
-0.000128591
0.0264202
-0.00012537
0.0263548
-0.00012203
0.0262892
-0.000118429
0.026225
-0.000114645
0.0261621
-0.000110301
0.0261005
-0.000105472
0.0260395
-0.000100355
0.0259783
-9.57033e-05
0.0259156
-9.05011e-05
0.0258516
-8.51507e-05
0.0257868
-7.98989e-05
0.0257222
-7.48602e-05
0.0256585
-6.99992e-05
0.0255968
-6.52872e-05
0.0255375
-6.07312e-05
0.0254807
-5.63334e-05
0.0254264
-5.19236e-05
0.0253741
-4.76124e-05
0.0253234
-4.3411e-05
0.0252741
-3.93446e-05
0.0252263
-3.52213e-05
0.0251809
-3.1373e-05
0.0251385
-2.76376e-05
0.0250999
-2.41894e-05
0.0250671
-2.08343e-05
0.0250412
-1.7639e-05
0.0250243
-1.45552e-05
0.0250157
-1.18424e-05
0.0250152
-9.12493e-06
0.025024
-7.20121e-06
0.0250407
-4.26819e-06
0.0250624
-1.60133e-06
0.0250833
4.47504e-07
0.0251055
1.93333e-06
0.0251316
3.40232e-06
0.0251548
4.95994e-06
0.0251758
5.8709e-06
0.0252017
6.24896e-06
0.0252312
6.94714e-06
0.025276
8.081e-06
0.0253369
8.98634e-06
0.0254028
9.63313e-06
0.025472
1.01341e-05
0.0255505
1.05977e-05
0.0256394
1.09398e-05
0.0257344
1.11443e-05
0.0258265
1.04245e-05
0.0259116
9.55249e-06
0.0259893
7.47037e-06
0.0260618
4.94786e-06
0.0261331
9.74017e-07
0.0262106
-2.75278e-06
0.0262921
-7.40038e-06
0.0263761
-1.29587e-05
0.0264676
-1.94307e-05
0.0265689
-2.60832e-05
0.0266884
-3.33127e-05
0.026828
-4.39842e-05
0.0270332
-5.00651e-05
0.0273009
-6.31736e-05
0.0277054
-6.84059e-05
0.0282067
-8.0293e-05
0.0289097
-8.88141e-05
0.0297146
-9.9148e-05
0.0307172
-0.000109347
0.0318077
-0.000111194
-0.000105287
0.0617789
0.0592205
0.0476342
0.0296696
0.0405243
0.0137209
0.0375004
0.00552493
0.0361839
0.00139486
0.0350089
-0.000707209
0.0343276
-0.00143162
0.0342735
-0.00138844
0.0346887
-0.00115568
0.0351804
-0.000757632
0.0355684
-0.000392384
0.0357717
-0.000208365
0.0357658
-0.000134634
0.035583
-9.70506e-05
0.0354121
-0.000150352
0.035289
-0.000211254
0.0352049
-0.000243479
0.0351529
-0.000257869
0.0351173
-0.00026137
0.0350811
-0.000259368
0.0350371
-0.000255815
0.0349863
-0.000253631
0.0349306
-0.00025164
0.0348713
-0.000248935
0.034808
-0.000245324
0.0347393
-0.000240517
0.0346629
-0.000234471
0.0345756
-0.000227576
0.0344739
-0.00022044
0.0343563
-0.000213517
0.0342235
-0.000207339
0.0340775
-0.000202404
0.0339211
-0.000197908
0.0337587
-0.000193237
0.0335929
-0.000189011
0.0334253
-0.000184793
0.0332584
-0.000179801
0.0330928
-0.000174039