/*--------------------------------*- C++ -*----------------------------------*\
  =========                 |
  \\      /  F ield         | OpenFOAM: The Open Source CFD Toolbox
   \\    /   O peration     | Website:  https://openfoam.org
    \\  /    A nd           | Version:  13
     \\/     M anipulation  |
\*---------------------------------------------------------------------------*/
FoamFile
{
    format      ascii;
    class       volVectorField;
    location    "1";
    object      U;
}
// * * * * * * * * * * * * * * * * * * * * * * * * * * * * * * * * * * * * * //

dimensions      [0 1 -1 0 0 0 0];

internalField   nonuniform List<vector> 
5250
(
(3 4.26585e-09 0)
(3 7.56806e-09 0)
(2.99999 6.61332e-08 0)
(2.99997 7.64115e-08 0)
(2.99994 4.8193e-07 0)
(2.99984 5.21484e-07 0)
(2.9996 3.39361e-06 0)
(2.999 3.23709e-06 0)
(2.99754 2.36857e-05 0)
(2.99382 2.58731e-05 0)
(2.98458 0.000147084 0)
(2.96047 0.000258046 0)
(2.895 0.000887648 0)
(2.70401 0.00236097 0)
(2.11907 0.00739882 0)
(0.948579 0.0228464 0)
(0.296383 0.0229327 0)
(0.508657 0.0241861 0)
(0.553884 0.0274432 0)
(0.481826 0.0308906 0)
(0.378148 0.0346145 0)
(0.288709 0.0381948 0)
(0.212595 0.0413464 0)
(0.136424 0.0445135 0)
(0.064762 0.0487409 0)
(3 7.40364e-09 0)
(3 4.6588e-08 0)
(2.99999 1.62068e-07 0)
(2.99997 4.58612e-07 0)
(2.99994 1.22854e-06 0)
(2.99984 3.13124e-06 0)
(2.9996 8.06624e-06 0)
(2.99902 2.04455e-05 0)
(2.99756 5.17799e-05 0)
(2.99392 0.00013432 0)
(2.98477 0.000343206 0)
(2.96109 0.000907482 0)
(2.89678 0.00246239 0)
(2.70954 0.00708078 0)
(2.13738 0.0218322 0)
(0.964412 0.0673534 0)
(0.305069 0.0675098 0)
(0.512207 0.0688097 0)
(0.555687 0.0745094 0)
(0.482435 0.0803223 0)
(0.378532 0.0871062 0)
(0.288728 0.0930673 0)
(0.211696 0.097182 0)
(0.134419 0.0998971 0)
(0.0632159 0.104005 0)
(3 1.04628e-08 0)
(3 8.44334e-08 0)
(2.99999 2.56127e-07 0)
(2.99997 8.28102e-07 0)
(2.99994 1.94166e-06 0)
(2.99984 5.62202e-06 0)
(2.99962 1.23316e-05 0)
(2.99903 3.63043e-05 0)
(2.99763 7.56138e-05 0)
(2.99406 0.00022881 0)
(2.98522 0.000498581 0)
(2.96225 0.00143062 0)
(2.90022 0.00366102 0)
(2.72069 0.0106377 0)
(2.17468 0.0325719 0)
(0.9999 0.101572 0)
(0.326005 0.113653 0)
(0.519951 0.119066 0)
(0.560742 0.127738 0)
(0.487124 0.136964 0)
(0.383924 0.149107 0)
(0.293602 0.159664 0)
(0.215252 0.167 0)
(0.136252 0.171968 0)
(0.0640559 0.178886 0)
(3 1.7024e-08 0)
(3 1.04682e-07 0)
(2.99999 3.68115e-07 0)
(2.99998 1.0257e-06 0)
(2.99994 2.74876e-06 0)
(2.99985 6.87325e-06 0)
(2.99963 1.75047e-05 0)
(2.99907 4.30562e-05 0)
(2.99772 0.000108849 0)
(2.99427 0.000269177 0)
(2.98577 0.000682423 0)
(2.96374 0.00172941 0)
(2.90454 0.00457381 0)
(2.73441 0.0127237 0)
(2.22107 0.0379884 0)
(1.04945 0.116664 0)
(0.355472 0.161567 0)
(0.528849 0.173552 0)
(0.56675 0.182956 0)
(0.495021 0.194347 0)
(0.394198 0.211751 0)
(0.303231 0.227241 0)
(0.223091 0.238512 0)
(0.141479 0.246777 0)
(0.0667851 0.257686 0)
(3 2.13585e-08 0)
(3 1.31816e-07 0)
(2.99999 4.60886e-07 0)
(2.99998 1.28969e-06 0)
(2.99994 3.43366e-06 0)
(2.99986 8.59013e-06 0)
(2.99965 2.17428e-05 0)
(2.99911 5.33151e-05 0)
(2.99782 0.000134268 0)
(2.99454 0.000329208 0)
(2.98644 0.000828838 0)
(2.9655 0.00207369 0)
(2.90944 0.00539708 0)
(2.749 0.0147013 0)
(2.26663 0.0424898 0)
(1.11564 0.12752 0)
(0.395804 0.211329 0)
(0.536946 0.231198 0)
(0.571322 0.238627 0)
(0.504796 0.250939 0)
(0.408703 0.273763 0)
(0.317376 0.294463 0)
(0.235259 0.310361 0)
(0.150461 0.322968 0)
(0.0718201 0.338934 0)
(3 2.64715e-08 0)
(3 1.51213e-07 0)
(2.99999 5.55507e-07 0)
(2.99998 1.4815e-06 0)
(2.99995 4.10959e-06 0)
(2.99986 9.87774e-06 0)
(2.99967 2.61152e-05 0)
(2.99916 6.10171e-05 0)
(2.99795 0.000160677 0)
(2.99485 0.000374466 0)
(2.98723 0.000981569 0)
(2.96755 0.00236828 0)
(2.91508 0.00622155 0)
(2.76548 0.0166725 0)
(2.31737 0.0476641 0)
(1.19943 0.142845 0)
(0.451716 0.260227 0)
(0.546416 0.290184 0)
(0.574135 0.293066 0)
(0.517167 0.306202 0)
(0.428261 0.335886 0)
(0.336601 0.362835 0)
(0.252527 0.385078 0)
(0.163816 0.404311 0)
(0.079475 0.428198 0)
(3 2.89298e-08 0)
(3 1.79071e-07 0)
(2.99999 6.25912e-07 0)
(2.99998 1.74369e-06 0)
(2.99995 4.64247e-06 0)
(2.99987 1.14613e-05 0)
(2.99969 2.95967e-05 0)
(2.99922 7.07397e-05 0)
(2.99808 0.000182704 0)
(2.99522 0.000434859 0)
(2.9881 0.00111636 0)
(2.96987 0.00272218 0)
(2.92137 0.00706241 0)
(2.78356 0.0188261 0)
(2.37307 0.0533019 0)
(1.29933 0.158614 0)
(0.524483 0.314308 0)
(0.557716 0.343222 0)
(0.574586 0.34487 0)
(0.533361 0.362684 0)
(0.454031 0.398004 0)
(0.362546 0.432572 0)
(0.277352 0.463863 0)
(0.184837 0.493344 0)
(0.092237 0.530595 0)
(3 3.13729e-08 0)
(3 2.04912e-07 0)
(2.99999 6.94707e-07 0)
(2.99998 1.9857e-06 0)
(2.99995 5.19541e-06 0)
(2.99988 1.31105e-05 0)
(2.99972 3.28775e-05 0)
(2.99929 8.14639e-05 0)
(2.99825 0.000202016 0)
(2.99563 0.00049859 0)
(2.98913 0.00123739 0)
(2.9725 0.00307077 0)
(2.9285 0.00786528 0)
(2.80396 0.0209012 0)
(2.43466 0.0588814 0)
(1.42604 0.172812 0)
(0.613057 0.373124 0)
(0.566294 0.38966 0)
(0.580493 0.394651 0)
(0.554381 0.421081 0)
(0.485359 0.459485 0)
(0.397565 0.503434 0)
(0.312957 0.54758 0)
(0.2177 0.592754 0)
(0.113567 0.655081 0)
(3 3.90733e-08 0)
(3 2.03531e-07 0)
(2.99999 8.14665e-07 0)
(2.99998 1.99387e-06 0)
(2.99996 6.04238e-06 0)
(2.9999 1.34564e-05 0)
(2.99975 3.78593e-05 0)
(2.99936 8.42454e-05 0)
(2.99843 0.000229591 0)
(2.99609 0.000521842 0)
(2.99024 0.00138453 0)
(2.97539 0.00328355 0)
(2.93621 0.00860062 0)
(2.82605 0.0224724 0)
(2.50044 0.0633493 0)
(1.5753 0.184838 0)
(0.715271 0.433158 0)
(0.572514 0.437232 0)
(0.594039 0.443319 0)
(0.581629 0.477365 0)
(0.523282 0.519868 0)
(0.445195 0.574772 0)
(0.364582 0.634104 0)
(0.272509 0.705272 0)
(0.152952 0.81602 0)
(3 3.70778e-08 0)
(3 2.32304e-07 0)
(2.99999 8.10298e-07 0)
(2.99999 2.28356e-06 0)
(2.99996 6.02694e-06 0)
(2.99991 1.53421e-05 0)
(2.99977 3.7956e-05 0)
(2.99945 9.56855e-05 0)
(2.99861 0.000232184 0)
(2.99659 0.000590415 0)
(2.99143 0.00142029 0)
(2.97853 0.00363574 0)
(2.94444 0.0090498 0)
(2.84962 0.024053 0)
(2.57 0.0669446 0)
(1.75048 0.195045 0)
(0.836167 0.491542 0)
(0.581856 0.486393 0)
(0.615942 0.489791 0)
(0.619135 0.526945 0)
(0.572628 0.576236 0)
(0.507755 0.641875 0)
(0.439973 0.723067 0)
(0.367044 0.841877 0)
(0.226103 1.0777 0)
(3 3.67197e-08 0)
(3 2.37624e-07 0)
(3 8.05751e-07 0)
(2.99999 2.33107e-06 0)
(2.99997 6.04816e-06 0)
(2.99992 1.56402e-05 0)
(2.99981 3.86557e-05 0)
(2.99953 9.79253e-05 0)
(2.99884 0.000239872 0)
(2.99708 0.000604581 0)
(2.99278 0.0014886 0)
(2.98175 0.00374242 0)
(2.95319 0.00947171 0)
(2.8743 0.0248933 0)
(2.64291 0.0693843 0)
(1.9495 0.202254 0)
(0.982653 0.544268 0)
(0.609584 0.540296 0)
(0.653141 0.540599 0)
(0.671915 0.572037 0)
(0.637832 0.626023 0)
(0.592071 0.69952 0)
(0.556629 0.800481 0)
(0.562702 0.952065 0)
(0.627302 1.22347 0)
(3 3.44729e-08 0)
(3 2.11044e-07 0)
(3 7.43824e-07 0)
(2.99999 2.07753e-06 0)
(2.99997 5.59759e-06 0)
(2.99994 1.39987e-05 0)
(2.99984 3.60763e-05 0)
(2.99962 8.8086e-05 0)
(2.99904 0.000225666 0)
(2.99763 0.000549344 0)
(2.99405 0.00140906 0)
(2.98518 0.00347118 0)
(2.96206 0.00893849 0)
(2.89959 0.0233414 0)
(2.71848 0.0649943 0)
(2.17255 0.190976 0)
(1.17501 0.551659 0)
(0.684183 0.585103 0)
(0.71451 0.598055 0)
(0.739984 0.616116 0)
(0.718668 0.669028 0)
(0.692056 0.745575 0)
(0.69001 0.851882 0)
(0.751712 0.999678 0)
(0.922116 1.204 0)
(3 2.79286e-08 0)
(3 1.84152e-07 0)
(3 6.19859e-07 0)
(2.99999 1.80449e-06 0)
(2.99998 4.6431e-06 0)
(2.99995 1.21706e-05 0)
(2.99987 2.96268e-05 0)
(2.99968 7.65776e-05 0)
(2.99923 0.000183792 0)
(2.99806 0.000476017 0)
(2.99522 0.00114137 0)
(2.98802 0.00295653 0)
(2.96977 0.00727398 0)
(2.92112 0.0191619 0)
(2.78353 0.0517922 0)
(2.37612 0.151377 0)
(1.3934 0.46196 0)
(0.782733 0.614101 0)
(0.774126 0.652095 0)
(0.798244 0.665849 0)
(0.799439 0.710434 0)
(0.792992 0.782376 0)
(0.815502 0.879286 0)
(0.899706 1.00112 0)
(1.08427 1.12897 0)
(3 2.60844e-08 0)
(3 1.55859e-07 0)
(3 5.58083e-07 0)
(2.99999 1.52358e-06 0)
(2.99998 4.15806e-06 0)
(2.99996 1.01454e-05 0)
(2.9999 2.64986e-05 0)
(2.99975 6.30241e-05 0)
(2.99937 0.000163324 0)
(2.99843 0.000387291 0)
(2.99611 0.000999838 0)
(2.99029 0.0023884 0)
(2.97557 0.00612612 0)
(2.93669 0.0153492 0)
(2.82788 0.0409405 0)
(2.50826 0.1151 0)
(1.62653 0.347267 0)
(0.898088 0.658961 0)
(0.813513 0.700479 0)
(0.837001 0.717211 0)
(0.86204 0.748306 0)
(0.878851 0.809666 0)
(0.919816 0.890203 0)
(1.0108 0.982852 0)
(1.18089 1.06316 0)
(3 2.17054e-08 0)
(3 1.4283e-07 0)
(3 4.76032e-07 0)
(2.99999 1.40002e-06 0)
(2.99999 3.56808e-06 0)
(2.99997 9.33125e-06 0)
(2.99992 2.27721e-05 0)
(2.9998 5.79943e-05 0)
(2.9995 0.000140998 0)
(2.99876 0.000355889 0)
(2.99688 0.000868794 0)
(2.9923 0.00218548 0)
(2.98057 0.00540136 0)
(2.95005 0.0137858 0)
(2.86581 0.0361299 0)
(2.61916 0.100806 0)
(1.89666 0.296639 0)
(1.06666 0.705507 0)
(0.850147 0.738972 0)
(0.868954 0.756844 0)
(0.9095 0.775744 0)
(0.948425 0.825325 0)
(1.00195 0.89062 0)
(1.09342 0.959612 0)
(1.24406 1.01339 0)
(3 1.95022e-08 0)
(3 1.1711e-07 0)
(3 4.21368e-07 0)
(3 1.1496e-06 0)
(2.99999 3.15278e-06 0)
(2.99997 7.771e-06 0)
(2.99994 2.0044e-05 0)
(2.99984 4.90707e-05 0)
(2.99962 0.000123856 0)
(2.99904 0.00030627 0)
(2.99764 0.00076304 0)
(2.99407 0.00191326 0)
(2.98523 0.00477147 0)
(2.96227 0.0121188 0)
(2.90019 0.0317693 0)
(2.72124 0.0877965 0)
(2.182 0.257743 0)
(1.29627 0.703162 0)
(0.925905 0.766798 0)
(0.919963 0.788064 0)
(0.959342 0.800636 0)
(1.01141 0.83433 0)
(1.07019 0.885767 0)
(1.15733 0.937987 0)
(1.28903 0.976383 0)
(3 1.50765e-08 0)
(3 9.75073e-08 0)
(3 3.26646e-07 0)
(3 9.56406e-07 0)
(2.99999 2.45359e-06 0)
(2.99998 6.3607e-06 0)
(2.99995 1.57843e-05 0)
(2.99988 3.94639e-05 0)
(2.99971 9.8962e-05 0)
(2.99929 0.000241452 0)
(2.99822 0.000616805 0)
(2.99564 0.00148966 0)
(2.98907 0.00382492 0)
(2.97257 0.00943956 0)
(2.92883 0.0246582 0)
(2.8068 0.0664241 0)
(2.44764 0.193155 0)
(1.58191 0.578952 0)
(1.04917 0.773665 0)
(0.988917 0.812833 0)
(1.01171 0.830775 0)
(1.06726 0.847871 0)
(1.13019 0.883669 0)
(1.21113 0.92217 0)
(1.3252 0.94969 0)
(3 1.15021e-08 0)
(3 7.83194e-08 0)
(3 2.55812e-07 0)
(3 7.67758e-07 0)
(2.99999 1.91544e-06 0)
(2.99999 5.13254e-06 0)
(2.99997 1.21712e-05 0)
(2.99991 3.19966e-05 0)
(2.99979 7.50538e-05 0)
(2.99947 0.000195712 0)
(2.99868 0.000461388 0)
(2.99674 0.00119097 0)
(2.99186 0.00285227 0)
(2.97961 0.00728385 0)
(2.94759 0.0181503 0)
(2.85943 0.0480489 0)
(2.60347 0.133571 0)
(1.87866 0.403818 0)
(1.19386 0.78869 0)
(1.04632 0.83927 0)
(1.05565 0.86378 0)
(1.10909 0.869785 0)
(1.1778 0.887054 0)
(1.25496 0.912309 0)
(1.35491 0.931075 0)
(3 9.84799e-09 0)
(3 5.78523e-08 0)
(3 2.11781e-07 0)
(3 5.69335e-07 0)
(3 1.57961e-06 0)
(2.99999 3.849e-06 0)
(2.99997 1.00243e-05 0)
(2.99994 2.42621e-05 0)
(2.99985 6.16046e-05 0)
(2.99961 0.000151163 0)
(2.99905 0.000376733 0)
(2.99763 0.000939074 0)
(2.99415 0.00231786 0)
(2.98531 0.0058424 0)
(2.96268 0.0146613 0)
(2.90145 0.0384085 0)
(2.72607 0.105368 0)
(2.19965 0.311788 0)
(1.41957 0.781954 0)
(1.12497 0.865294 0)
(1.10812 0.889558 0)
(1.14662 0.89357 0)
(1.21642 0.894811 0)
(1.29321 0.907468 0)
(1.3826 0.918954 0)
(3 7.28311e-09 0)
(3 4.40302e-08 0)
(3 1.57183e-07 0)
(3 4.322e-07 0)
(3 1.17699e-06 0)
(2.99999 2.90628e-06 0)
(2.99998 7.50895e-06 0)
(2.99996 1.82295e-05 0)
(2.99989 4.64026e-05 0)
(2.99973 0.000113089 0)
(2.99934 0.000285268 0)
(2.99836 0.000700992 0)
(2.99594 0.00175598 0)
(2.9899 0.00436656 0)
(2.97468 0.0109725 0)
(2.93479 0.0282708 0)
(2.82447 0.0760932 0)
(2.50041 0.220346 0)
(1.72901 0.639059 0)
(1.25395 0.86352 0)
(1.17684 0.90117 0)
(1.19117 0.914901 0)
(1.25139 0.909268 0)
(1.32747 0.909942 0)
(1.40928 0.913979 0)
(3 5.09487e-09 0)
(3 3.40362e-08 0)
(3 1.11642e-07 0)
(3 3.33347e-07 0)
(3 8.38405e-07 0)
(3 2.21876e-06 0)
(2.99999 5.38303e-06 0)
(2.99997 1.37596e-05 0)
(2.99993 3.34868e-05 0)
(2.99981 8.41171e-05 0)
(2.99954 0.000207289 0)
(2.99885 0.000512111 0)
(2.9972 0.00128071 0)
(2.99298 0.00313672 0)
(2.98258 0.00791174 0)
(2.95547 0.019804 0)
(2.88206 0.0519572 0)
(2.67103 0.143402 0)
(2.06342 0.43016 0)
(1.42093 0.859995 0)
(1.24107 0.92226 0)
(1.23562 0.939996 0)
(1.28183 0.933256 0)
(1.35644 0.921017 0)
(1.43457 0.91702 0)
(3 3.81519e-09 0)
(3 2.42456e-08 0)
(3 8.24247e-08 0)
(3 2.37636e-07 0)
(3 6.16283e-07 0)
(3 1.58436e-06 0)
(2.99999 3.94682e-06 0)
(2.99998 9.80903e-06 0)
(2.99995 2.45131e-05 0)
(2.99988 5.99247e-05 0)
(2.99969 0.000150872 0)
(2.99925 0.000366103 0)
(2.99813 0.000927028 0)
(2.99543 0.00224763 0)
(2.98856 0.00570159 0)
(2.97131 0.0141041 0)
(2.92565 0.0366389 0)
(2.79826 0.0988197 0)
(2.41606 0.290932 0)
(1.70001 0.755061 0)
(1.34853 0.918166 0)
(1.29724 0.950482 0)
(1.31817 0.955535 0)
(1.38266 0.939075 0)
(1.45894 0.926186 0)
(3 2.68369e-09 0)
(3 1.64696e-08 0)
(3 5.80957e-08 0)
(3 1.61544e-07 0)
(3 4.33515e-07 0)
(3 1.0853e-06 0)
(2.99999 2.74438e-06 0)
(2.99999 6.77191e-06 0)
(2.99997 1.68275e-05 0)
(2.99992 4.15237e-05 0)
(2.9998 0.000102274 0)
(2.9995 0.000253999 0)
(2.99877 0.000620408 0)
(2.99696 0.00154847 0)
(2.99246 0.0037973 0)
(2.9812 0.00949262 0)
(2.952 0.0239834 0)
(2.87288 0.0630512 0)
(2.64444 0.177234 0)
(2.02999 0.523815 0)
(1.49636 0.892669 0)
(1.36391 0.956069 0)
(1.36094 0.97458 0)
(1.40777 0.962694 0)
(1.47961 0.938242 0)
(3 1.82521e-09 0)
(3 1.12194e-08 0)
(3 3.95664e-08 0)
(3 1.09656e-07 0)
(3 2.95484e-07 0)
(3 7.34431e-07 0)
(3 1.87598e-06 0)
(2.99999 4.58829e-06 0)
(2.99998 1.1508e-05 0)
(2.99995 2.82147e-05 0)
(2.99987 7.00708e-05 0)
(2.99968 0.000172875 0)
(2.99921 0.000425533 0)
(2.99807 0.00105837 0)
(2.99518 0.00259495 0)
(2.98811 0.0064992 0)
(2.96995 0.0161659 0)
(2.92211 0.0418864 0)
(2.78833 0.113003 0)
(2.38835 0.334657 0)
(1.7476 0.796873 0)
(1.45977 0.947526 0)
(1.41611 0.980808 0)
(1.43566 0.982381 0)
(1.49588 0.956783 0)
(3 1.19354e-09 0)
(3 7.54544e-09 0)
(3 2.60863e-08 0)
(3 7.36431e-08 0)
(3 1.94606e-07 0)
(3 4.91253e-07 0)
(3 1.23201e-06 0)
(2.99999 3.05835e-06 0)
(2.99999 7.53173e-06 0)
(2.99997 1.87812e-05 0)
(2.99992 4.57612e-05 0)
(2.9998 0.000114768 0)
(2.99951 0.000278278 0)
(2.99877 0.000700815 0)
(2.99699 0.00169942 0)
(2.9925 0.00428266 0)
(2.98138 0.0105368 0)
(2.95248 0.0269184 0)
(2.87483 0.0706564 0)
(2.64931 0.200303 0)
(2.07221 0.573206 0)
(1.60383 0.916763 0)
(1.48299 0.98067 0)
(1.47515 0.995758 0)
(1.51414 0.980991 0)
(3 7.89784e-10 0)
(3 4.89043e-09 0)
(3 1.70157e-08 0)
(3 4.78636e-08 0)
(3 1.26845e-07 0)
(3 3.18744e-07 0)
(3 8.05285e-07 0)
(3 1.97266e-06 0)
(2.99999 4.95041e-06 0)
(2.99998 1.20227e-05 0)
(2.99995 3.01843e-05 0)
(2.99988 7.31071e-05 0)
(2.9997 0.000183426 0)
(2.99926 0.000445431 0)
(2.99816 0.0011148 0)
(2.99548 0.00272159 0)
(2.98877 0.00681824 0)
(2.97186 0.0169166 0)
(2.9274 0.0437345 0)
(2.80417 0.117598 0)
(2.4375 0.347251 0)
(1.85183 0.79833 0)
(1.57574 0.960106 0)
(1.52794 0.994787 0)
(1.54098 0.998553 0)
(3 4.80622e-10 0)
(3 3.14926e-09 0)
(3 1.05891e-08 0)
(3 3.0737e-08 0)
(3 7.90928e-08 0)
(3 2.04487e-07 0)
(3 4.99665e-07 0)
(3 1.26784e-06 0)
(3 3.05075e-06 0)
(2.99999 7.73017e-06 0)
(2.99997 1.85105e-05 0)
(2.99992 4.68363e-05 0)
(2.99982 0.000112404 0)
(2.99955 0.000283031 0)
(2.99888 0.000683665 0)
(2.99725 0.00171434 0)
(2.9932 0.00418253 0)
(2.98311 0.0105009 0)
(2.95715 0.0263294 0)
(2.88785 0.069193 0)
(2.68818 0.19432 0)
(2.17375 0.550306 0)
(1.72281 0.915961 0)
(1.59499 0.989032 0)
(1.58094 1.007 0)
(3 3.1277e-10 0)
(3 1.89846e-09 0)
(3 6.73836e-09 0)
(3 1.85706e-08 0)
(3 5.02199e-08 0)
(3 1.24063e-07 0)
(3 3.18137e-07 0)
(3 7.695e-07 0)
(3 1.94412e-06 0)
(2.99999 4.70763e-06 0)
(2.99998 1.17662e-05 0)
(2.99996 2.86744e-05 0)
(2.99989 7.11106e-05 0)
(2.99973 0.000174381 0)
(2.99935 0.000429507 0)
(2.99839 0.00106193 0)
(2.99609 0.00260224 0)
(2.99028 0.00648839 0)
(2.97593 0.0160565 0)
(2.93858 0.0412508 0)
(2.83732 0.109908 0)
(2.53891 0.320226 0)
(1.98717 0.758441 0)
(1.69362 0.954636 0)
(1.63585 0.99954 0)
(3 1.86122e-10 0)
(3 1.15999e-09 0)
(3 4.00674e-09 0)
(3 1.1342e-08 0)
(3 2.98588e-08 0)
(3 7.55479e-08 0)
(3 1.89366e-07 0)
(3 4.66989e-07 0)
(3 1.16372e-06 0)
(3 2.83323e-06 0)
(2.99999 7.08234e-06 0)
(2.99997 1.71094e-05 0)
(2.99994 4.2852e-05 0)
(2.99984 0.000103235 0)
(2.99962 0.000258008 0)
(2.99906 0.000622917 0)
(2.99772 0.00155003 0)
(2.99431 0.00377265 0)
(2.986 0.00936891 0)
(2.96465 0.0233145 0)
(2.90851 0.0600453 0)
(2.74965 0.164697 0)
(2.31889 0.465031 0)
(1.86063 0.871402 0)
(1.70575 0.980632 0)
(3 1.10094e-10 0)
(3 6.86931e-10 0)
(3 2.36742e-09 0)
(3 6.72122e-09 0)
(3 1.76639e-08 0)
(3 4.46352e-08 0)
(3 1.12293e-07 0)
(3 2.75526e-07 0)
(3 6.911e-07 0)
(3 1.67278e-06 0)
(2.99999 4.22021e-06 0)
(2.99999 1.01324e-05 0)
(2.99996 2.56345e-05 0)
(2.99991 6.14176e-05 0)
(2.99979 0.000155266 0)
(2.99947 0.000372548 0)
(2.99871 0.000938401 0)
(2.99679 0.00226759 0)
(2.99218 0.0056831 0)
(2.98048 0.0139774 0)
(2.95076 0.0355402 0)
(2.87127 0.09337 0)
(2.63996 0.265401 0)
(2.14427 0.675824 0)
(1.82033 0.941001 0)
(3 6.23107e-11 0)
(3 4.02358e-10 0)
(3 1.35261e-09 0)
(3 3.93592e-09 0)
(3 1.01046e-08 0)
(3 2.61009e-08 0)
(3 6.42435e-08 0)
(3 1.60934e-07 0)
(3 3.95214e-07 0)
(3 9.76521e-07 0)
(3 2.41457e-06 0)
(2.99999 5.90184e-06 0)
(2.99998 1.46795e-05 0)
(2.99995 3.56471e-05 0)
(2.99988 8.91331e-05 0)
(2.99971 0.000214676 0)
(2.99929 0.000539826 0)
(2.99826 0.00129473 0)
(2.99575 0.00325791 0)
(2.98946 0.00788548 0)
(2.97377 0.019839 0)
(2.93289 0.0502024 0)
(2.81989 0.134963 0)
(2.49766 0.383927 0)
(2.03523 0.803265 0)
(3 3.47437e-11 0)
(3 2.28447e-10 0)
(3 7.62991e-10 0)
(3 2.22859e-09 0)
(3 5.68735e-09 0)
(3 1.48079e-08 0)
(3 3.59427e-08 0)
(3 9.13884e-08 0)
(3 2.19641e-07 0)
(3 5.54021e-07 0)
(3 1.33319e-06 0)
(3 3.3368e-06 0)
(2.99999 8.07672e-06 0)
(2.99997 2.00316e-05 0)
(2.99994 4.88569e-05 0)
(2.99984 0.00011993 0)
(2.99961 0.000295079 0)
(2.99905 0.00071855 0)
(2.99767 0.00178232 0)
(2.99426 0.00433135 0)
(2.9858 0.010836 0)
(2.96427 0.026899 0)
(2.90771 0.070013 0)
(2.74626 0.19412 0)
(2.34433 0.526921 0)
(3 1.95634e-11 0)
(3 1.2566e-10 0)
(3 4.29013e-10 0)
(3 1.22493e-09 0)
(3 3.19506e-09 0)
(3 8.1533e-09 0)
(3 2.00874e-08 0)
(3 5.04957e-08 0)
(3 1.21975e-07 0)
(3 3.07223e-07 0)
(3 7.36431e-07 0)
(3 1.85887e-06 0)
(2.99999 4.44719e-06 0)
(2.99999 1.12074e-05 0)
(2.99997 2.69061e-05 0)
(2.99992 6.74355e-05 0)
(2.99979 0.000162902 0)
(2.9995 0.000405757 0)
(2.99876 0.000988491 0)
(2.99699 0.00244598 0)
(2.99253 0.0060308 0)
(2.98164 0.014949 0)
(2.95367 0.0379269 0)
(2.87942 0.0994201 0)
(2.6661 0.281516 0)
(3 1.09929e-11 0)
(3 6.75309e-11 0)
(3 2.37825e-10 0)
(3 6.57738e-10 0)
(3 1.76792e-09 0)
(3 4.37207e-09 0)
(3 1.11186e-08 0)
(3 2.70507e-08 0)
(3 6.73837e-08 0)
(3 1.64699e-07 0)
(3 4.05391e-07 0)
(3 9.99443e-07 0)
(3 2.43265e-06 0)
(2.99999 6.05982e-06 0)
(2.99998 1.45955e-05 0)
(2.99996 3.66389e-05 0)
(2.99989 8.76863e-05 0)
(2.99974 0.000220837 0)
(2.99937 0.000527214 0)
(2.99846 0.00132756 0)
(2.99621 0.00318336 0)
(2.99075 0.0079937 0)
(2.97697 0.0195246 0)
(2.94178 0.0499404 0)
(2.84545 0.1324 0)
(3 5.85826e-12 0)
(3 3.6134e-11 0)
(3 1.26198e-10 0)
(3 3.52717e-10 0)
(3 9.36205e-10 0)
(3 2.33927e-09 0)
(3 5.90922e-09 0)
(3 1.4367e-08 0)
(3 3.60166e-08 0)
(3 8.67302e-08 0)
(3 2.17303e-07 0)
(3 5.21877e-07 0)
(3 1.3057e-06 0)
(3 3.13772e-06 0)
(2.99999 7.8212e-06 0)
(2.99998 1.88367e-05 0)
(2.99995 4.66782e-05 0)
(2.99987 0.000113059 0)
(2.99968 0.000277541 0)
(2.9992 0.00067708 0)
(2.99808 0.00165074 0)
(2.99523 0.00405992 0)
(2.98837 0.0099222 0)
(2.97081 0.0247448 0)
(2.92558 0.0630657 0)
(3 2.94004e-12 0)
(3 1.93251e-11 0)
(3 6.43747e-11 0)
(3 1.88418e-10 0)
(3 4.79222e-10 0)
(3 1.24621e-09 0)
(3 3.02368e-09 0)
(3 7.63765e-09 0)
(3 1.84051e-08 0)
(3 4.594e-08 0)
(3 1.11145e-07 0)
(3 2.744e-07 0)
(3 6.69704e-07 0)
(3 1.636e-06 0)
(3 4.02856e-06 0)
(2.99999 9.73901e-06 0)
(2.99997 2.41994e-05 0)
(2.99993 5.80149e-05 0)
(2.99984 0.000144931 0)
(2.99961 0.00034615 0)
(2.99903 0.000867304 0)
(2.99763 0.00207337 0)
(2.99415 0.00520949 0)
(2.98565 0.0126224 0)
(2.96397 0.0320474 0)
(3 1.59323e-12 0)
(3 9.69302e-12 0)
(3 3.40387e-11 0)
(3 9.40927e-11 0)
(3 2.52108e-10 0)
(3 6.24189e-10 0)
(3 1.57885e-09 0)
(3 3.8444e-09 0)
(3 9.52424e-09 0)
(3 2.32727e-08 0)
(3 5.69117e-08 0)
(3 1.40184e-07 0)
(3 3.38944e-07 0)
(3 8.43027e-07 0)
(3 2.01973e-06 0)
(2.99999 5.05381e-06 0)
(2.99999 1.20596e-05 0)
(2.99997 3.02391e-05 0)
(2.99992 7.21636e-05 0)
(2.99981 0.000180594 0)
(2.99952 0.000432879 0)
(2.99885 0.00108007 0)
(2.99715 0.00260569 0)
(2.99311 0.00649518 0)
(2.9829 0.0159041 0)
(3 8.03008e-13 0)
(3 4.86899e-12 0)
(3 1.70276e-11 0)
(3 4.73067e-11 0)
(3 1.26044e-10 0)
(3 3.12346e-10 0)
(3 7.93684e-10 0)
(3 1.91081e-09 0)
(3 4.81467e-09 0)
(3 1.14905e-08 0)
(3 2.88536e-08 0)
(3 6.8917e-08 0)
(3 1.72286e-07 0)
(3 4.12955e-07 0)
(3 1.02623e-06 0)
(3 2.4779e-06 0)
(2.99999 6.10593e-06 0)
(2.99998 1.48608e-05 0)
(2.99996 3.63094e-05 0)
(2.99991 8.9189e-05 0)
(2.99978 0.000215744 0)
(2.99944 0.000534998 0)
(2.99867 0.00128422 0)
(2.99671 0.00320488 0)
(2.99205 0.00772032 0)
(3 3.56854e-13 0)
(3 2.42329e-12 0)
(3 8.13776e-12 0)
(3 2.37413e-11 0)
(3 6.04475e-11 0)
(3 1.56567e-10 0)
(3 3.80301e-10 0)
(3 9.57246e-10 0)
(3 2.30415e-09 0)
(3 5.74392e-09 0)
(3 1.3859e-08 0)
(3 3.42502e-08 0)
(3 8.31353e-08 0)
(3 2.03815e-07 0)
(3 4.98485e-07 0)
(3 1.21127e-06 0)
(3 2.98681e-06 0)
(2.99999 7.1944e-06 0)
(2.99998 1.78511e-05 0)
(2.99996 4.27516e-05 0)
(2.99989 0.000106398 0)
(2.99974 0.000253757 0)
(2.99938 0.000631757 0)
(2.99847 0.0015071 0)
(2.99632 0.00374241 0)
(3 1.59967e-13 0)
(3 1.11293e-12 0)
(3 3.89549e-12 0)
(3 1.10798e-11 0)
(3 2.92915e-11 0)
(3 7.41343e-11 0)
(3 1.83665e-10 0)
(3 4.56032e-10 0)
(3 1.10795e-09 0)
(3 2.75008e-09 0)
(3 6.62393e-09 0)
(3 1.6487e-08 0)
(3 3.95016e-08 0)
(3 9.84545e-08 0)
(3 2.35795e-07 0)
(3 5.8607e-07 0)
(3 1.40606e-06 0)
(3 3.47964e-06 0)
(2.99999 8.38497e-06 0)
(2.99998 2.05626e-05 0)
(2.99995 4.99153e-05 0)
(2.99988 0.000121115 0)
(2.99971 0.000296301 0)
(2.9993 0.000711747 0)
(2.99829 0.00175508 0)
(3 8.1881e-14 0)
(3 4.81318e-13 0)
(3 1.79557e-12 0)
(3 5.10974e-12 0)
(3 1.37648e-11 0)
(3 3.45335e-11 0)
(3 8.71069e-11 0)
(3 2.11544e-10 0)
(3 5.28749e-10 0)
(3 1.26951e-09 0)
(3 3.17252e-09 0)
(3 7.57846e-09 0)
(3 1.89384e-08 0)
(3 4.52662e-08 0)
(3 1.1257e-07 0)
(3 2.6993e-07 0)
(3 6.67385e-07 0)
(3 1.60825e-06 0)
(3 3.94137e-06 0)
(2.99999 9.55999e-06 0)
(2.99998 2.32148e-05 0)
(2.99995 5.66857e-05 0)
(2.99987 0.000136369 0)
(2.99968 0.000335624 0)
(2.99923 0.000801812 0)
(3 3.6486e-14 0)
(3 2.28055e-13 0)
(3 8.40718e-13 0)
(3 2.40065e-12 0)
(3 6.22196e-12 0)
(3 1.60704e-11 0)
(3 3.93488e-11 0)
(3 9.87074e-11 0)
(3 2.38813e-10 0)
(3 5.93172e-10 0)
(3 1.43575e-09 0)
(3 3.53027e-09 0)
(3 8.59342e-09 0)
(3 2.09505e-08 0)
(3 5.13508e-08 0)
(3 1.23983e-07 0)
(3 3.05979e-07 0)
(3 7.33085e-07 0)
(3 1.81475e-06 0)
(3 4.33613e-06 0)
(2.99999 1.07055e-05 0)
(2.99998 2.56374e-05 0)
(2.99994 6.30029e-05 0)
(2.99986 0.000151544 0)
(2.99966 0.000370301 0)
(3 1.95337e-14 0)
(3 1.00912e-13 0)
(3 3.2817e-13 0)
(3 1.00212e-12 0)
(3 2.76812e-12 0)
(3 7.016e-12 0)
(3 1.77467e-11 0)
(3 4.39156e-11 0)
(3 1.08099e-10 0)
(3 2.65597e-10 0)
(3 6.46511e-10 0)
(3 1.59334e-09 0)
(3 3.8411e-09 0)
(3 9.50859e-09 0)
(3 2.27969e-08 0)
(3 5.65287e-08 0)
(3 1.35137e-07 0)
(3 3.34429e-07 0)
(3 8.00709e-07 0)
(3 1.97191e-06 0)
(3 4.73738e-06 0)
(2.99999 1.15927e-05 0)
(2.99997 2.80118e-05 0)
(2.99994 6.81263e-05 0)
(2.99985 0.000165527 0)
(3 4.05107e-15 0)
(3 4.48453e-14 0)
(3 1.50972e-13 0)
(3 4.39873e-13 0)
(3 1.21278e-12 0)
(3 3.11199e-12 0)
(3 7.8339e-12 0)
(3 1.92648e-11 0)
(3 4.79294e-11 0)
(3 1.15979e-10 0)
(3 2.87747e-10 0)
(3 6.92538e-10 0)
(3 1.71897e-09 0)
(3 4.11889e-09 0)
(3 1.02153e-08 0)
(3 2.44419e-08 0)
(3 6.04252e-08 0)
(3 1.44838e-07 0)
(3 3.56414e-07 0)
(3 8.56426e-07 0)
(3 2.09553e-06 0)
(3 5.06105e-06 0)
(2.99999 1.23049e-05 0)
(2.99997 2.98805e-05 0)
(2.99994 7.21998e-05 0)
(3 -8.87797e-15 0)
(3 3.1396e-14 0)
(3 6.67895e-14 0)
(3 1.83008e-13 0)
(3 4.47805e-13 0)
(3 1.29975e-12 0)
(3 3.26068e-12 0)
(3 8.29667e-12 0)
(3 2.02305e-11 0)
(3 5.06023e-11 0)
(3 1.21762e-10 0)
(3 3.03179e-10 0)
(3 7.27884e-10 0)
(3 1.80136e-09 0)
(3 4.33534e-09 0)
(3 1.066e-08 0)
(3 2.57399e-08 0)
(3 6.28634e-08 0)
(3 1.52383e-07 0)
(3 3.69626e-07 0)
(3 9.00405e-07 0)
(3 2.16878e-06 0)
(3 5.31096e-06 0)
(2.99999 1.27268e-05 0)
(2.99997 3.12995e-05 0)
(3 3.18307e-15 0)
(3 1.59761e-14 0)
(3 3.96482e-14 0)
(3 9.42548e-14 0)
(3 2.21196e-13 0)
(3 5.35442e-13 0)
(3 1.38946e-12 0)
(3 3.3779e-12 0)
(3 8.57346e-12 0)
(3 2.08335e-11 0)
(3 5.21458e-11 0)
(3 1.25393e-10 0)
(3 3.11417e-10 0)
(3 7.49361e-10 0)
(3 1.84644e-09 0)
(3 4.46366e-09 0)
(3 1.08987e-08 0)
(3 2.64977e-08 0)
(3 6.4096e-08 0)
(3 1.5676e-07 0)
(3 3.7619e-07 0)
(3 9.24131e-07 0)
(3 2.20666e-06 0)
(3 5.43756e-06 0)
(2.99999 1.29486e-05 0)
(3 4.34679e-16 0)
(3 -2.59601e-16 0)
(3 1.66865e-14 0)
(3 5.72584e-14 0)
(3 1.15503e-13 0)
(3 2.21171e-13 0)
(3 5.76244e-13 0)
(3 1.38493e-12 0)
(3 3.49427e-12 0)
(3 8.64467e-12 0)
(3 2.10202e-11 0)
(3 5.19456e-11 0)
(3 1.26535e-10 0)
(3 3.09782e-10 0)
(3 7.54961e-10 0)
(3 1.83468e-09 0)
(3 4.49358e-09 0)
(3 1.08108e-08 0)
(3 2.66239e-08 0)
(3 6.35866e-08 0)
(3 1.57008e-07 0)
(3 3.73606e-07 0)
(3 9.21756e-07 0)
(3 2.19456e-06 0)
(3 5.40039e-06 0)
(3 -3.17252e-15 0)
(3 -2.02709e-15 0)
(3 7.25878e-15 0)
(3 2.89023e-14 0)
(3 7.48165e-14 0)
(3 1.34799e-13 0)
(3 2.45824e-13 0)
(3 6.05702e-13 0)
(3 1.39693e-12 0)
(3 3.51257e-12 0)
(3 8.43072e-12 0)
(3 2.08172e-11 0)
(3 5.04245e-11 0)
(3 1.24343e-10 0)
(3 2.99495e-10 0)
(3 7.40665e-10 0)
(3 1.77303e-09 0)
(3 4.39269e-09 0)
(3 1.0469e-08 0)
(3 2.59104e-08 0)
(3 6.17577e-08 0)
(3 1.52143e-07 0)
(3 3.63252e-07 0)
(3 8.90509e-07 0)
(3 2.13432e-06 0)
(3 6.44822e-15 0)
(3 2.58913e-14 0)
(3 4.42016e-14 0)
(3 7.01106e-14 0)
(3 1.03597e-13 0)
(3 1.56388e-13 0)
(3 2.27264e-13 0)
(3 3.63494e-13 0)
(3 6.53511e-13 0)
(3 1.3977e-12 0)
(3 3.32192e-12 0)
(3 7.79845e-12 0)
(3 1.92525e-11 0)
(3 4.60758e-11 0)
(3 1.14069e-10 0)
(3 2.7341e-10 0)
(3 6.75887e-10 0)
(3 1.62305e-09 0)
(3 3.98799e-09 0)
(3 9.59979e-09 0)
(3 2.3459e-08 0)
(3 5.66633e-08 0)
(3 1.37414e-07 0)
(3 3.33196e-07 0)
(3 8.02922e-07 0)
(3 6.69224e-15 0)
(3 1.72209e-14 0)
(3 2.82619e-14 0)
(3 3.68921e-14 0)
(3 3.36766e-14 0)
(3 4.90757e-14 0)
(3 9.17705e-14 0)
(3 1.34523e-13 0)
(3 2.18356e-13 0)
(3 3.71159e-13 0)
(3 8.24636e-13 0)
(3 2.01495e-12 0)
(3 4.64656e-12 0)
(3 1.19165e-11 0)
(3 2.79226e-11 0)
(3 7.07857e-11 0)
(3 1.67279e-10 0)
(3 4.17898e-10 0)
(3 9.96612e-10 0)
(3 2.45372e-09 0)
(3 5.91183e-09 0)
(3 1.43504e-08 0)
(3 3.50431e-08 0)
(3 8.35772e-08 0)
(3 2.06446e-07 0)
(1.33152 1.12185 0)
(1.76447 0.912277 0)
(1.96673 0.640551 0)
(2.01129 0.366419 0)
(1.97624 0.142621 0)
(1.90512 -0.00672861 0)
(1.82771 -0.0482225 0)
(1.78996 -0.0270442 0)
(1.78951 0.00883116 0)
(1.79979 0.034445 0)
(1.81467 0.0420201 0)
(1.83143 0.0363513 0)
(1.8426 0.0250991 0)
(1.85114 0.014069 0)
(1.85972 0.00751916 0)
(1.8698 0.00523786 0)
(1.88187 0.00547871 0)
(1.89579 0.00628065 0)
(1.91087 0.00659458 0)
(1.92662 0.00611406 0)
(1.94268 0.00505596 0)
(1.95888 0.00381876 0)
(1.97516 0.00271083 0)
(1.99157 0.00186007 0)
(2.0081 0.00127597 0)
(2.02477 0.000899608 0)
(2.04156 0.000653109 0)
(2.05842 0.000471338 0)
(2.07532 0.000314756 0)
(2.09219 0.000164116 0)
(2.10902 1.06277e-05 0)
(2.12577 -0.000140718 0)
(2.14239 -0.000278462 0)
(2.15886 -0.000396591 0)
(2.17515 -0.000477017 0)
(2.19124 -0.000513104 0)
(2.20713 -0.000511723 0)
(2.22279 -0.000456347 0)
(2.23819 -0.000363733 0)
(2.25332 -0.000238067 0)
(2.26819 -0.00011743 0)
(2.28276 5.07322e-05 0)
(2.29698 0.00024683 0)
(2.31081 0.00045099 0)
(2.32422 0.00065586 0)
(2.33719 0.000863009 0)
(2.34968 0.00107384 0)
(2.36166 0.00128796 0)
(2.37313 0.00150222 0)
(2.38406 0.00173037 0)
(2.39444 0.00196659 0)
(2.40423 0.00221112 0)
(2.41345 0.00245753 0)
(2.42209 0.00273106 0)
(2.43014 0.00299443 0)
(2.43762 0.00326826 0)
(2.44452 0.00354064 0)
(2.45086 0.00382526 0)
(2.45665 0.00412011 0)
(2.46189 0.00442607 0)
(2.46658 0.00472946 0)
(2.47074 0.0050542 0)
(2.47437 0.00534244 0)
(2.47751 0.00557207 0)
(2.48015 0.00571047 0)
(2.48234 0.00576368 0)
(2.4841 0.00576424 0)
(2.48544 0.00571074 0)
(2.48639 0.00565908 0)
(2.48695 0.00555985 0)
(2.48718 0.00545533 0)
(2.48714 0.00538055 0)
(2.48685 0.00534395 0)
(2.48638 0.00530199 0)
(2.48587 0.00524427 0)
(2.48533 0.00517785 0)
(2.48457 0.00511244 0)
(2.48348 0.00504571 0)
(2.48213 0.00497008 0)
(2.48077 0.0048536 0)
(2.47954 0.00470913 0)
(2.47843 0.00452313 0)
(2.4775 0.00430414 0)
(2.47683 0.00399763 0)
(2.47653 0.00359169 0)
(2.47654 0.00306378 0)
(2.4769 0.00246995 0)
(2.4777 0.00180563 0)
(2.47901 0.00111456 0)
(2.48108 0.00041096 0)
(2.48356 -0.000469212 0)
(2.48682 -0.00108551 0)
(2.49072 -0.00194741 0)
(2.4955 -0.00241944 0)
(2.50099 -0.00305578 0)
(2.50724 -0.00347602 0)
(2.51399 -0.0039075 0)
(2.52099 -0.00417158 0)
(2.52721 -0.00413351 0)
(2.53461 -0.00355146 0)
(1.41529 1.02364 0)
(1.74882 0.732462 0)
(1.93839 0.412689 0)
(2.03711 0.13676 0)
(2.0998 -0.0598127 0)
(2.14446 -0.166099 0)
(2.16607 -0.181025 0)
(2.17172 -0.142887 0)
(2.17066 -0.0957083 0)
(2.162 -0.0557887 0)
(2.15445 -0.0289256 0)
(2.15575 -0.0195893 0)
(2.16217 -0.021588 0)
(2.17121 -0.0249947 0)
(2.18227 -0.028197 0)
(2.19315 -0.0303486 0)
(2.20325 -0.0303385 0)
(2.2129 -0.029046 0)
(2.22259 -0.0274883 0)
(2.23268 -0.0261961 0)
(2.24333 -0.0252417 0)
(2.25451 -0.0245205 0)
(2.26606 -0.023903 0)
(2.27787 -0.0233034 0)
(2.28987 -0.0226805 0)
(2.30203 -0.0220249 0)
(2.31433 -0.0213481 0)
(2.32676 -0.020674 0)
(2.33932 -0.0200256 0)
(2.35196 -0.0194184 0)
(2.36468 -0.0188719 0)
(2.37744 -0.0183985 0)
(2.39022 -0.0179652 0)
(2.40299 -0.0175479 0)
(2.41571 -0.0171565 0)
(2.42838 -0.0167782 0)
(2.44098 -0.0163864 0)
(2.4535 -0.01596 0)
(2.46589 -0.015495 0)
(2.47813 -0.0150118 0)
(2.49027 -0.0145289 0)
(2.5023 -0.0140472 0)
(2.51412 -0.0135523 0)
(2.5257 -0.013061 0)
(2.53704 -0.0125872 0)
(2.54811 -0.0121302 0)
(2.55887 -0.0116873 0)
(2.5693 -0.0112606 0)
(2.57938 -0.0108386 0)
(2.58908 -0.0104237 0)
(2.59837 -0.0100211 0)