/*--------------------------------*- C++ -*----------------------------------*\
  =========                 |
  \\      /  F ield         | OpenFOAM: The Open Source CFD Toolbox
   \\    /   O peration     | Website:  https://openfoam.org
    \\  /    A nd           | Version:  13
     \\/     M anipulation  |
\*---------------------------------------------------------------------------*/
FoamFile
{
    format      ascii;
    class       surfaceScalarField;
    location    "1.5";
    object      phi;
}
// * * * * * * * * * * * * * * * * * * * * * * * * * * * * * * * * * * * * * //

dimensions      [1 0 -1 0 0 0 0];

internalField   nonuniform List<scalar> 
10325
(
0.0840003
-4.1647e-10
0.0840002
5.55222e-09
0.0840005
-2.46032e-09
0.0839997
5.44822e-08
0.0840017
-1.18641e-08
0.0839953
3.43448e-07
0.0840101
-6.51296e-08
0.0839712
2.04295e-06
0.0840511
-2.3811e-07
0.0838799
1.01568e-05
0.084102
6.73668e-06
0.0837603
4.34332e-05
0.0838479
9.86997e-05
0.083257
0.000351613
0.0813593
0.00155509
0.0743136
0.00642132
0.0666532
0.00743582
0.0602462
0.0065583
0.0536203
0.00674193
0.0460095
0.00750582
0.0376422
0.00814612
0.0288145
0.00876409
0.0195988
0.00922756
0.0100343
0.00955803
0.00981443
0.0840003
1.5602e-09
0.0840004
1.57854e-09
0.084
2.72201e-08
0.0840009
1.44401e-08
0.0839983
1.94674e-07
0.0840046
1.13696e-07
0.0839873
1.1406e-06
0.0840267
9.40963e-07
0.0839332
6.23225e-06
0.0840943
8.42102e-06
0.0838111
3.09183e-05
0.0840496
7.03453e-05
0.08364
0.000215977
0.0833159
0.000714495
0.0813375
0.00311129
0.074129
0.0129932
0.0668926
0.0144278
0.0604064
0.0132227
0.0536123
0.0136486
0.0460008
0.0150232
0.0375542
0.016377
0.0286838
0.0175727
0.0194099
0.0185126
0.00980279
0.0191574
0.0193952
0.0840003
1.06064e-09
0.0840002
8.23183e-09
0.0840008
2.09695e-08
0.0839992
7.8356e-08
0.0840028
1.59196e-07
0.0839941
4.54202e-07
0.0840135
1.14795e-06
0.0839687
2.4613e-06
0.084056
7.56077e-06
0.083881
1.45525e-05
0.0841038
4.54261e-05
0.0837485
0.000105589
0.0838458
0.000329219
0.0832672
0.001066
0.0814311
0.00460027
0.0739586
0.0198003
0.0678945
0.0203017
0.0609922
0.0203087
0.0539585
0.0207727
0.0464129
0.0224943
0.0379277
0.0246527
0.0290188
0.0264217
0.0196703
0.027874
0.00993417
0.0288887
0.0291071
0.0840003
9.90918e-10
0.0840004
1.0981e-08
0.0840001
2.49369e-08
0.0840008
1.08401e-07
0.0839993
1.81528e-07
0.0840009
7.2202e-07
0.0839978
1.08967e-06
0.0839955
4.47494e-06
0.0839938
6.84386e-06
0.0839795
2.57817e-05
0.0839511
4.9633e-05
0.0839148
0.00015599
0.0837273
0.000421925
0.0832722
0.0014192
0.0816237
0.00588696
0.0745202
0.0261715
0.0680742
0.0267934
0.0616864
0.026747
0.0546423
0.027837
0.0471091
0.0299741
0.0387154
0.0328511
0.0298205
0.0352685
0.0203567
0.037348
0.0103353
0.038896
0.0392253
0.0840003
1.75364e-09
0.0840004
1.05594e-08
0.084
3.78286e-08
0.0840009
1.02146e-07
0.0839984
2.827e-07
0.0840045
6.74555e-07
0.0839876
1.80629e-06
0.084027
4.17414e-06
0.083933
1.10918e-05
0.0841017
2.61565e-05
0.0837941
6.88687e-05
0.0840786
0.000178907
0.0836201
0.000523012
0.0835031
0.00171418
0.0819884
0.00693535
0.0752649
0.0320728
0.0687393
0.0333915
0.0624672
0.0330696
0.0554516
0.034844
0.0480362
0.0373484
0.0398856
0.0408505
0.0310462
0.044055
0.0214581
0.0469468
0.0110763
0.0492796
0.0501043
0.0840003
2.62179e-09
0.0840004
1.05731e-08
0.084
5.11171e-08
0.0840009
1.02473e-07
0.0839983
3.78719e-07
0.0840047
6.92766e-07
0.0839877
2.37393e-06
0.0840271
4.38156e-06
0.083934
1.42916e-05
0.084102
2.82856e-05
0.0837919
8.51391e-05
0.0840945
0.000203812
0.0836193
0.000611317
0.0834895
0.00196717
0.0821875
0.00780517
0.0759852
0.0373883
0.0695157
0.0399741
0.0633593
0.039301
0.056721
0.0414819
0.0495555
0.0444867
0.041611
0.0486117
0.0328793
0.0527422
0.023154
0.0567272
0.0121554
0.0603324
0.0620866
0.0840003
2.25944e-09
0.0840003
1.42255e-08
0.0840002
5.06052e-08
0.0840005
1.41743e-07
0.0839998
3.7056e-07
0.0839997
9.78638e-07
0.0840002
2.23795e-06
0.0839911
6.2533e-06
0.0840049
1.33858e-05
0.0839589
3.88132e-05
0.0839888
8.69463e-05
0.0838822
0.000246806
0.083787
0.000676813
0.0834005
0.00221799
0.0824095
0.0085004
0.077071
0.0417409
0.0706842
0.0465272
0.0646811
0.0453916
0.0583702
0.0477631
0.0515638
0.0512352
0.0439717
0.0560677
0.035444
0.0612503
0.0255781
0.0666137
0.0139506
0.0719548
0.0758523
0.0840003
2.47965e-09
0.0840002
1.6677e-08
0.0840006
5.2907e-08
0.0839996
1.62726e-07
0.084002
3.9723e-07
0.0839961
1.06233e-06
0.0840089
2.62184e-06
0.0839785
6.34696e-06
0.0840359
1.68079e-05
0.083913
3.84355e-05
0.0840727
0.000105031
0.083783
0.000260889
0.0839017
0.000755639
0.083437
0.00238647
0.0827586
0.00898564
0.0790969
0.0442682
0.072652
0.0531834
0.0666807
0.0514864
0.0607195
0.0537481
0.054391
0.0575795
0.0471798
0.0631989
0.0389135
0.0695198
0.0291561
0.0764094
0.0167677
0.0843838
0.0924607
0.0840003
2.46755e-09
0.0840004
1.68223e-08
0.0840001
5.58996e-08
0.0840008
1.64255e-07
0.0839993
4.19469e-07
0.0840023
1.11194e-06
0.0839954
2.595e-06
0.0840051
7.17687e-06
0.0839824
1.56409e-05
0.0840076
4.51755e-05
0.0839368
0.000101354
0.0839773
0.000287445
0.0837958
0.000771106
0.0836829
0.00246673
0.0833593
0.00901919
0.0828254
0.0436113
0.0762175
0.0600503
0.0699784
0.0579008
0.064297
0.0594468
0.0582658
0.0636057
0.0517036
0.0696762
0.0441771
0.0770795
0.034952
0.0857197
0.0218921
0.097569
0.114282
0.0840003
2.64127e-09
0.0840003
1.55288e-08
0.0840005
5.48488e-08
0.0839999
1.51801e-07
0.0840012
4.09364e-07
0.0839984
9.96492e-07
0.0840032
2.69495e-06
0.083994
6.053e-06
0.0840044
1.72382e-05
0.0839815
3.78004e-05
0.0840077
0.000107854
0.0839368
0.000260162
0.0840001
0.000751133
0.0839935
0.00228124
0.0845859
0.00823865
0.0894038
0.0375354
0.082456
0.0671851
0.0750478
0.0654496
0.0694743
0.0650594
0.0638686
0.0692141
0.0580935
0.0753409
0.051762
0.0833528
0.0432535
0.0942132
0.0304684
0.110423
0.144631
0.0840003
1.92482e-09
0.0840004
1.4035e-08
0.0840002
4.40325e-08
0.0840006
1.37226e-07
0.0839997
3.27918e-07
0.0840015
9.28676e-07
0.0839988
2.03339e-06
0.0840014
5.89157e-06
0.0840011
1.23083e-05
0.0840002
3.6154e-05
0.0840176
7.82764e-05
0.0840526
0.00022058
0.0841674
0.000559271
0.0847137
0.00168611
0.0871237
0.00564504
0.099402
0.0242885
0.0915466
0.0749769
0.0813101
0.0757207
0.0757089
0.0706505
0.0706247
0.0742909
0.0657422
0.080201
0.0607534
0.0883467
0.0564871
0.0985392
0.0565366
0.110531
0.113571
0.087649
0.0840003
2.15987e-09
0.0840003
1.1005e-08
0.0840004
4.43271e-08
0.0840002
1.07583e-07
0.0840004
3.29039e-07
0.0840004
7.09313e-07
0.0839993
2.0944e-06
0.0840037
4.33454e-06
0.0839888
1.28625e-05
0.0840259
2.67708e-05
0.0839588
7.74178e-05
0.0840783
0.000176433
0.0840109
0.000496045
0.0843109
0.00139032
0.0851592
0.00461249
0.0902765
0.0187006
0.0910985
0.0734476
0.0883944
0.0783435
0.0812843
0.0777701
0.076448
0.0791056
0.0723452
0.0842622
0.0694315
0.0912154
0.0687015
0.0992488
0.0729802
0.10632
0.104063
0.0826344
0.0840003
1.48186e-09
0.0840003
1.17679e-08
0.0840003
3.43988e-08
0.0840003
1.15038e-07
0.0840004
2.58217e-07
0.0839997
7.66811e-07
0.0840021
1.61869e-06
0.0839934
4.77129e-06
0.0840168
9.92657e-06
0.08396
2.89917e-05
0.084073
6.28408e-05
0.0838948
0.000175631
0.0841317
0.000434005
0.0839994
0.00126213
0.0846209
0.00402132
0.0873992
0.0154331
0.0908251
0.0688416
0.0879556
0.0811798
0.0838507
0.081876
0.0807862
0.0821834
0.0785571
0.0864288
0.0775279
0.0921772
0.0791647
0.0975721
0.0844156
0.101083
0.0983905
0.0902072
0.0840003
1.82166e-09
0.0840003
9.31904e-09
0.0840003
3.73715e-08
0.0840003
9.15497e-08
0.0840002
2.75876e-07
0.0840005
6.10537e-07
0.083999
1.76359e-06
0.084004
3.77731e-06
0.0839868
1.08933e-05
0.0840292
2.34357e-05
0.0839368
6.64138e-05
0.084091
0.000152631
0.0838915
0.000421223
0.0841338
0.00114108
0.0842714
0.0036208
0.0862141
0.0132872
0.0930491
0.0608321
0.0907331
0.0835983
0.0876708
0.0850473
0.0850959
0.0847763
0.0839419
0.0875707
0.0841198
0.0919394
0.0861547
0.0954924
0.0907011
0.096537
0.0933874
0.0957817
0.0840003
1.23327e-09
0.0840003
9.50797e-09
0.0840003
2.84185e-08
0.0840003
9.26054e-08
0.0840004
2.14091e-07
0.0840001
6.15347e-07
0.0840011
1.36562e-06
0.0839971
3.84326e-06
0.0840095
8.51421e-06
0.0839775
2.36324e-05
0.0840503
5.38365e-05
0.0839314
0.000146098
0.0841252
0.000360906
0.084033
0.00101332
0.0846217
0.0030548
0.0867532
0.0108567
0.100011
0.046347
0.0964811
0.0870981
0.0927317
0.0888176
0.0898325
0.0877651
0.0890058
0.0884481
0.0897576
0.0911905
0.091659
0.0935902
0.0950494
0.0931473
0.0893668
0.0990923
0.0840003
1.27526e-09
0.0840003
6.61948e-09
0.0840003
2.66242e-08
0.0840004
6.50863e-08
0.0840001
1.96131e-07
0.0840011
4.38316e-07
0.0839988
1.22577e-06
0.084006
2.74087e-06
0.0839901
7.41814e-06
0.0840363
1.69922e-05
0.0839528
4.46044e-05
0.0841584
0.000106581
0.0839505
0.000275728
0.0845304
0.000720232
0.0851212
0.00208235
0.0891617
0.00684462
0.107366
0.0274534
0.103703
0.0902726
0.100601
0.0918323
0.0960059
0.0923285
0.0940539
0.0903277
0.094472
0.090763
0.0961935
0.0918279
0.098618
0.0907248
0.0865095
0.101488
0.0840003
8.37825e-10
0.0840003
6.23817e-09
0.0840004
1.90524e-08
0.0840002
6.08798e-08
0.0840006
1.43184e-07
0.0839997
4.00906e-07
0.0840025
9.08738e-07
0.0839964
2.45806e-06
0.0840131
5.57574e-06
0.0839803
1.48241e-05
0.0840642
3.44136e-05
0.0839243
8.95312e-05
0.084214
0.000218693
0.0839929
0.000576851
0.0847264
0.0016059
0.0860595
0.00511321
0.0936005
0.0195902
0.104991
0.0776151
0.103325
0.0933832
0.100759
0.0948684
0.0985278
0.0926331
0.0983654
0.0909348
0.0997545
0.0904219
0.10154
0.0888856
0.0846563
0.103375
0.0840003
8.45678e-10
0.0840003
4.67783e-09
0.0840003
1.76975e-08
0.0840003
4.56955e-08
0.0840004
1.31073e-07
0.0840004
3.0508e-07
0.0840002
8.28253e-07
0.0840015
1.89711e-06
0.0839974
5.07561e-06
0.0840117
1.16876e-05
0.083981
3.08468e-05
0.0840585
7.29823e-05
0.0839603
0.000190039
0.0841751
0.000480345
0.0842301
0.00133264
0.0852531
0.00407566
0.0896309
0.0147853
0.105882
0.0601734
0.106294
0.0929817
0.104541
0.0966119
0.102229
0.0949437
0.101777
0.0913441
0.102725
0.0894785
0.104129
0.0874427
0.0834655
0.105322
0.0840003
5.54078e-10
0.0840003
3.92211e-09
0.0840004
1.23051e-08
0.0840003
3.83576e-08
0.0840005
9.23353e-08
0.084
2.50773e-07
0.0840016
5.92867e-07
0.0839984
1.52519e-06
0.084008
3.68446e-06
0.0839902
9.16714e-06
0.0840424
2.28567e-05
0.0839578
5.54992e-05
0.08417
0.000142222
0.0840031
0.000353123
0.0846219
0.000954469
0.0855258
0.00275848
0.0908704
0.00930348
0.112981
0.0364539
0.111689
0.0941398
0.110862
0.0975836
0.108274
0.0976447
0.105903
0.0937314
0.105617
0.0897827
0.106393
0.086672
0.0826695
0.107113
0.0840003
4.52452e-10
0.0840003
2.83241e-09
0.0840003
9.85595e-09
0.0840004
2.78223e-08
0.0840002
7.31765e-08
0.0840007
1.85656e-07
0.0839999
4.58157e-07
0.0840021
1.1483e-06
0.0839991
2.78425e-06
0.0840068
7.00498e-06
0.084001
1.68338e-05
0.0840243
4.26019e-05
0.0840309
0.000103457
0.0841414
0.000263765
0.0843102
0.000677817
0.085155
0.00190405
0.0882627
0.00599956
0.101509
0.022688
0.114691
0.0801789
0.114339
0.0979644
0.112364
0.0996809
0.10982
0.0962963
0.10871
0.090899
0.108655
0.0867314
0.0824461
0.108877
0.0840003
3.41275e-10
0.0840003
2.18311e-09
0.0840003
7.52484e-09
0.0840004
2.13299e-08
0.0840003
5.60852e-08
0.0840006
1.42435e-07
0.084
3.52961e-07
0.0840018
8.87173e-07
0.0839987
2.15327e-06
0.0840079
5.43297e-06
0.0839942
1.31158e-05
0.084032
3.33896e-05
0.0839919
8.06951e-05
0.0841297
0.000207452
0.0841095
0.000523508
0.0846807
0.00143798
0.0860715
0.00433532
0.0929538
0.0155543
0.114317
0.0576124
0.11667
0.0955293
0.116241
0.100086
0.113938
0.0986044
0.112164
0.092685
0.111304
0.0875772
0.0827134
0.111001
0.0840003
2.67576e-10
0.0840003
1.52357e-09
0.0840003
5.72313e-09
0.0840003
1.49365e-08
0.0840003
4.23407e-08
0.0840005
9.9562e-08
0.0840002
2.63879e-07
0.0840014
6.16017e-07
0.0839991
1.58174e-06
0.084008
3.76495e-06
0.0839931
9.42745e-06
0.0840456
2.29325e-05
0.0839729
5.63603e-05
0.0842142
0.000140929
0.0840696
0.000349591
0.0849151
0.000920427
0.0861925
0.00259302
0.0932683
0.00840721
0.119129
0.0306289
0.122105
0.0921743
0.121778
0.100312
0.119341
0.100954
0.11567
0.0963462
0.114086
0.0891211
0.0837473
0.113022
0.0840003
1.74218e-10
0.0840003
1.19208e-09
0.0840003
3.8411e-09
0.0840003
1.16399e-08
0.0840004
2.85571e-08
0.0840003
7.63952e-08
0.0840007
1.79926e-07
0.084
4.64698e-07
0.0840023
1.10039e-06
0.0839992
2.77983e-06
0.0840094
6.68702e-06
0.0839992
1.65706e-05
0.0840378
4.08062e-05
0.0840264
9.98693e-05
0.0841802
0.000252062
0.0843159
0.000638781
0.0852074
0.0017513
0.0879953
0.00536133
0.0985765
0.0196266
0.121182
0.0684492
0.123759
0.0976109
0.123064
0.101545
0.119067
0.100317
0.11731
0.0909144
0.0854399
0.115656
0.0840003
1.3553e-10
0.0840003
7.77405e-10
0.0840003
2.8844e-09
0.0840003
7.61931e-09
0.0840003
2.12828e-08
0.0840004
5.06082e-08
0.0840003
1.33423e-07
0.0840007
3.11168e-07
0.0840001
8.0578e-07
0.0840031
1.89112e-06
0.0839984
4.81887e-06
0.0840186
1.15101e-05
0.0839898
2.8828e-05
0.0841024
7.04171e-05
0.0839955
0.000175291
0.0844242
0.000442364
0.084626
0.00116806
0.0867483
0.00336852
0.0945695
0.0113422
0.121117
0.040416
0.125876
0.0925297
0.126907
0.100569
0.125865
0.101391
0.121053
0.0957511
0.0881144
0.118381
0.0840003
8.53848e-11
0.0840003
5.70627e-10
0.0840003
1.87384e-09
0.0840003
5.57531e-09
0.0840004
1.39862e-08
0.0840003
3.64216e-08
0.0840005
8.84945e-08
0.0840002
2.20678e-07
0.0840013
5.42559e-07
0.0839999
1.30983e-06
0.0840056
3.29978e-06
0.0839997
7.78389e-06
0.0840239
1.99847e-05
0.0840127
4.65519e-05
0.0841106
0.000121146
0.0841606
0.000288603
0.0846345
0.000762339
0.0857348
0.00205637
0.0905936
0.00639223
0.107757
0.0227359
0.127021
0.0722618
0.128897
0.0986188
0.129014
0.101258
0.124691
0.100106
0.0910803
0.121816
0.0840003
6.01556e-11
0.0840003
3.7113e-10
0.0840003
1.31417e-09
0.0840003
3.64986e-09
0.0840003
9.68635e-09
0.0840004
2.43461e-08
0.0840003
6.00156e-08
0.0840005
1.5035e-07
0.0840004
3.58685e-07
0.084001
9.16063e-07
0.0840019
2.13012e-06
0.084002
5.53959e-06
0.0840148
1.27383e-05
0.0840031
3.33628e-05
0.0840952
7.71772e-05
0.0840588
0.000202032
0.0844693
0.000489258
0.0849241
0.00132345
0.0875703
0.00379089
0.0969552
0.0129014
0.124319
0.0435211
0.130461
0.0921612
0.131813
0.0999214
0.130467
0.101466
0.0955785
0.126015
0.0840003
3.87029e-11
0.0840003
2.54492e-10
0.0840003
8.45602e-10
0.0840003
2.48758e-09
0.0840003
6.30185e-09
0.0840003
1.62511e-08
0.0840004
3.97591e-08
0.0840003
9.81042e-08
0.0840006
2.42639e-07
0.0840006
5.81555e-07
0.0840015
1.46945e-06
0.0840032
3.44371e-06
0.0840042
8.85408e-06
0.0840234
2.05212e-05
0.0840176
5.32322e-05
0.0841434
0.000124308
0.084189
0.000323168
0.0847931
0.0008011
0.0861377
0.00222337
0.0921613
0.00682089
0.111637
0.0235071
0.13154
0.0712046
0.13308
0.0982851
0.134302
0.1002
0.0995929
0.130327
0.0840003
2.6552e-11
0.0840003
1.58863e-10
0.0840003
5.74504e-10
0.0840003
1.55756e-09
0.0840003
4.23721e-09
0.0840003
1.03258e-08
0.0840003
2.62272e-08
0.0840004
6.36948e-08
0.0840003
1.56184e-07
0.0840009
3.86441e-07
0.0840006
9.22941e-07
0.0840027
2.33277e-06
0.0840042
5.44833e-06
0.084009
1.40299e-05
0.0840319
3.24206e-05
0.0840481
8.41787e-05
0.0841914
0.000197795
0.084398
0.000515874
0.0852618
0.00132121
0.0880545
0.00383882
0.0985198
0.0127568
0.126852
0.0414398
0.13471
0.0900089
0.136241
0.0986713
0.10114
0.134723
0.0840003
1.6458e-11
0.0840003
1.04491e-10
0.0840003
3.56647e-10
0.0840003
1.02052e-09
0.0840003
2.65427e-09
0.0840003
6.66172e-09
0.0840004
1.67313e-08
0.0840003
4.02308e-08
0.0840005
1.01438e-07
0.0840004
2.391e-07
0.084001
6.09564e-07
0.0840014
1.41871e-06
0.0840026
3.64486e-06
0.0840098
8.4422e-06
0.0840085
2.17342e-05
0.0840657
5.06194e-05
0.0840616
0.000129752
0.0843545
0.000311515
0.0846771
0.000808011
0.0863933
0.00216043
0.0922828
0.00661648
0.111044
0.0222404
0.13426
0.0656658
0.136341
0.0964881
0.0985466
0.138888
0.0840003
9.8274e-12
0.0840003
6.55555e-11
0.0840003
2.18691e-10
0.0840003
6.43739e-10
0.0840003
1.61625e-09
0.0840003
4.23194e-09
0.0840003
1.00547e-08
0.0840003
2.56491e-08
0.0840004
6.0434e-08
0.0840004
1.52593e-07
0.084001
3.61334e-07
0.0840003
8.9984e-07
0.0840046
2.16013e-06
0.0839998
5.30986e-06
0.0840262
1.28806e-05
0.0840011
3.14263e-05
0.0841414
7.72295e-05
0.0840657
0.000188452
0.0846625
0.000474455
0.0851292
0.00122154
0.0885078
0.00345609
0.0989466
0.0112012
0.127784
0.0353826
0.13857
0.0853868
0.0973716
0.13969
0.0840003
6.26737e-12
0.0840003
3.97323e-11
0.0840003
1.38156e-10
0.0840003
3.8896e-10
0.0840003
1.02111e-09
0.0840003
2.5704e-09
0.0840003
6.30144e-09
0.0840004
1.57118e-08
0.0840003
3.75015e-08
0.0840004
9.42443e-08
0.0840005
2.21632e-07
0.0840008
5.62305e-07
0.0840018
1.31143e-06
0.0840017
3.33725e-06
0.0840119
7.80446e-06
0.0840049
1.97572e-05
0.0840752
4.67187e-05
0.0840392
0.000117674
0.0843943
0.000285789
0.0845546
0.000729507
0.0863327
0.00193377
0.0912342
0.00578621
0.107207
0.0191879
0.134936
0.0564586
0.0923127
0.139711
0.0840003
3.88505e-12
0.0840003
2.37013e-11
0.0840003
8.45283e-11
0.0840003
2.32174e-10
0.0840003
6.23204e-10
0.0840003
1.52612e-09
0.0840003
3.85896e-09
0.0840003
9.25013e-09
0.0840003
2.29965e-08
0.0840004
5.50633e-08
0.0840003
1.35531e-07
0.084001
3.26677e-07
0.0840004
7.97619e-07
0.0840042
1.93211e-06
0.0840013
4.68494e-06
0.084022
1.1434e-05
0.0840108
2.75501e-05
0.0841136
6.77042e-05
0.0841146
0.000163935
0.0845896
0.000409197
0.0851676
0.00103687
0.0882615
0.00285098
0.0982845
0.00884686
0.126926
0.0272904
0.0770111
0.141463
0.0840003
2.3477e-12
0.0840003
1.4245e-11
0.0840003
5.07087e-11
0.0840003
1.39336e-10
0.0840003
3.73526e-10
0.0840003
9.12819e-10
0.0840003
2.32252e-09
0.0840003
5.49707e-09
0.0840003
1.38737e-08
0.0840004
3.26033e-08
0.0840004
8.19179e-08
0.0840007
1.93198e-07
0.0840004
4.8033e-07
0.0840025
1.14756e-06
0.0840006
2.81129e-06
0.0840135
6.81237e-06
0.0840035
1.64784e-05
0.0840742
4.05008e-05
0.0840354
9.72791e-05
0.0843652
0.000243298
0.0844855
0.000597575
0.0860206
0.00157806
0.0898544
0.00451694
0.102299
0.0147016
0.0443217
0.133428
0.0840003
1.31133e-12
0.0840003
8.65549e-12
0.0840003
2.88055e-11
0.0840003
8.47777e-11
0.0840003
2.13747e-10
0.0840003
5.50955e-10
0.0840003
1.33658e-09
0.0840003
3.30101e-09
0.0840003
8.04591e-09
0.0840003
1.94175e-08
0.0840004
4.79012e-08
0.0840004
1.13873e-07
0.0840007
2.84226e-07
0.0840009
6.67664e-07
0.0840019
1.68156e-06
0.0840055
3.92556e-06
0.0840059
9.90526e-06
0.0840376
2.32277e-05
0.0840289
5.83245e-05
0.0842199
0.000138887
0.0842647
0.00034918
0.0851816
0.00086937
0.0869652
0.00234094
0.0947015
0.00699039
0.0221222
0.11633
0.0840003
7.48681e-13
0.0840003
4.95435e-12
0.0840003
1.67018e-11
0.0840003
4.84783e-11
0.0840003
1.2342e-10
0.0840003
3.17532e-10
0.0840003
7.60715e-10
0.0840003
1.91999e-09
0.0840003
4.51358e-09
0.0840003
1.13387e-08
0.0840004
2.66495e-08
0.0840004
6.63878e-08
0.0840006
1.57099e-07
0.0840004
3.86684e-07
0.0840022
9.26653e-07
0.0840011
2.24891e-06
0.0840113
5.4572e-06
0.0840068
1.30613e-05
0.0840613
3.21592e-05
0.0840502
7.63794e-05
0.0843173
0.000190642
0.0844773
0.000461064
0.0858161
0.00119516
0.0890427
0.00326493
0.0102323
0.100654
0.0840003
4.49737e-13
0.0840003
2.72614e-12
0.0840003
9.80036e-12
0.0840003
2.67013e-11
0.0840003
7.21605e-11
0.0840003
1.75698e-10
0.0840003
4.42648e-10
0.0840003
1.0656e-09
0.0840003
2.60662e-09
0.0840003
6.34482e-09
0.0840003
1.51988e-08
0.0840004
3.75353e-08
0.0840004
8.84429e-08
0.0840006
2.21216e-07
0.0840009
5.15407e-07
0.0840015
1.29665e-06
0.084005
3.01029e-06
0.0840046
7.57805e-06
0.0840321
1.76623e-05
0.0840229
4.41947e-05
0.0841901
0.000104599
0.0841806
0.000261225
0.085001
0.000641687
0.0860455
0.00168284
0.00481516
0.0917234
0.0840003
2.48155e-13
0.0840003
1.55782e-12
0.0840003
5.38952e-12
0.0840003
1.52353e-11
0.0840003
3.97399e-11
0.0840003
9.92198e-11
0.0840003
2.47141e-10
0.0840003
5.91771e-10
0.0840003
1.48029e-09
0.0840003
3.46235e-09
0.0840003
8.74075e-09
0.0840004
2.02533e-08
0.0840004
5.12783e-08
0.0840006
1.18687e-07
0.0840004
2.99079e-07
0.0840018
6.98019e-07
0.084001
1.73946e-06
0.0840087
4.10898e-06
0.0840054
1.00938e-05
0.0840467
2.42751e-05
0.0840376
5.87921e-05
0.0842403
0.000144228
0.0843367
0.000350372
0.085319
0.000888615
0.00234242
0.0873922
0.0840003
1.33013e-13
0.0840003
8.67885e-13
0.0840003
2.94677e-12
0.0840003
8.4957e-12
0.0840003
2.17044e-11
0.0840003
5.54807e-11
0.0840003
1.33369e-10
0.0840003
3.34489e-10
0.0840003
7.86622e-10
0.0840003
1.97271e-09
0.0840003
4.60152e-09
0.0840003
1.15375e-08
0.0840004
2.69266e-08
0.0840004
6.70693e-08
0.0840006
1.5773e-07
0.0840005
3.88354e-07
0.0840023
9.23939e-07
0.0840016
2.24163e-06
0.0840114
5.4051e-06
0.0840095
1.2922e-05
0.084062
3.15625e-05
0.0840656
7.4816e-05
0.0843304
0.000185176
0.0845458
0.000444918
0.00113973
0.0859439
0.0840003
7.49025e-14
0.0840003
4.53058e-13
0.0840003
1.64974e-12
0.0840003
4.45304e-12
0.0840003
1.21125e-11
0.0840003
2.9128e-11
0.0840003
7.44042e-11
0.0840003
1.75084e-10
0.0840003
4.37193e-10
0.0840003
1.03418e-09
0.0840003
2.54143e-09
0.0840003
6.07489e-09
0.0840003
1.46981e-08
0.0840004
3.56719e-08
0.0840004
8.48827e-08
0.0840007
2.08802e-07
0.0840009
4.89473e-07
0.0840018
1.22039e-06
0.0840046
2.82609e-06
0.0840066
7.08657e-06
0.0840303
1.63865e-05
0.0840308
4.10704e-05
0.0841849
9.55891e-05
0.0842091
0.000239994
0.000577403
0.0850062
0.0840003
3.93474e-14
0.0840003
2.54419e-13
0.0840003
8.48265e-13
0.0840003
2.48079e-12
0.0840003
6.27903e-12
0.0840003
1.60489e-11
0.0840003
3.88363e-11
0.0840003
9.52226e-11
0.0840003
2.31108e-10
0.0840003
5.5316e-10
0.0840003
1.35845e-09
0.0840003
3.202e-09
0.0840003
7.95137e-09
0.0840004
1.85308e-08
0.0840004
4.63214e-08
0.0840005
1.07503e-07
0.0840005
2.69067e-07
0.0840015
6.24966e-07
0.0840013
1.55636e-06
0.084008
3.6467e-06
0.0840051
8.98862e-06
0.0840465
2.1307e-05
0.0840317
5.20629e-05
0.0842541
0.000125416
0.000306374
0.0842742
0.0840003
2.0077e-14
0.0840003
1.35053e-13
0.0840003
4.53281e-13
0.0840003
1.2995e-12
0.0840003
3.33995e-12
0.0840003
8.4569e-12
0.0840003
2.04091e-11
0.0840003
5.08138e-11
0.0840003
1.19384e-10
0.0840003
2.98801e-10
0.0840003
6.93067e-10
0.0840003
1.7401e-09
0.0840003
4.0294e-09
0.0840003
1.00767e-08
0.0840004
2.34866e-08
0.0840004
5.81367e-08
0.0840006
1.37083e-07
0.0840005
3.34856e-07
0.084002
8.00946e-07
0.0840019
1.92594e-06
0.084009
4.67661e-06
0.0840123
1.10872e-05
0.0840417
2.73161e-05
0.084087
6.40951e-05
0.000160142
0.0842247
0.0840003
1.15661e-14
0.0840003
6.47119e-14
0.0840003
2.42581e-13
0.0840003
6.57532e-13
0.0840003
1.77949e-12
0.0840003
4.2907e-12
0.0840003
1.09279e-11
0.0840003
2.55462e-11
0.0840003
6.43415e-11
0.0840003
1.49259e-10
0.0840003
3.73335e-10
0.0840003
8.69574e-10
0.0840003
2.15269e-09
0.0840003
5.06838e-09
0.0840003
1.23778e-08
0.0840004
2.95529e-08
0.0840004
7.09794e-08
0.0840007
1.72026e-07
0.0840008
4.06765e-07
0.0840019
9.98619e-07
0.0840037
2.33151e-06
0.0840078
5.76797e-06
0.0840242
1.33949e-05
0.0840359
3.32012e-05
7.72752e-05
0.0841543
0.0840003
4.76637e-15
0.0840003
3.64186e-14
0.0840003
1.19103e-13
0.0840003
3.55638e-13
0.0840003
8.78159e-13
0.0840003
2.29016e-12
0.0840003
5.39243e-12
0.0840003
1.36246e-11
0.0840003
3.17298e-11
0.0840003
7.90585e-11
0.0840003
1.85018e-10
0.0840003
4.55049e-10
0.0840003
1.07662e-09
0.0840003
2.60656e-09
0.0840003
6.25774e-09
0.0840003
1.49038e-08
0.0840004
3.63256e-08
0.0840005
8.51142e-08
0.0840006
2.10081e-07
0.0840012
4.86952e-07
0.0840015
1.20884e-06
0.0840062
2.79324e-06
0.0840062
6.91813e-06
0.0840364
1.60742e-05
3.95416e-05
0.0840331
0.0840003
2.1877e-15
0.0840003
1.8099e-14
0.0840003
6.23019e-14
0.0840003
1.70517e-13
0.0840003
4.61965e-13
0.0840003
1.11468e-12
0.0840003
2.83969e-12
0.0840003
6.6424e-12
0.0840003
1.66089e-11
0.0840003
3.873e-11
0.0840003
9.56956e-11
0.0840003
2.24631e-10
0.0840003
5.48483e-10
0.0840003
1.3012e-09
0.0840003
3.13495e-09
0.0840003
7.52655e-09
0.0840004
1.78811e-08
0.0840004
4.35186e-08
0.0840005
1.0187e-07
0.0840006
2.50853e-07
0.0840015
5.81612e-07
0.0840017
1.44053e-06
0.0840075
3.32884e-06
0.0840072
8.24274e-06
1.91338e-05
0.0840437
0.0840003
1.62522e-15
0.0840003
9.23393e-15
0.0840003
3.10544e-14
0.0840003
8.91967e-14
0.0840003
2.24275e-13
0.0840003
5.78676e-13
0.0840003
1.36875e-12
0.0840003
3.43169e-12
0.0840003
8.00312e-12
0.0840003
1.98976e-11
0.0840003
4.62846e-11
0.0840003
1.14398e-10
0.0840003
2.66701e-10
0.0840003
6.55065e-10
0.0840003
1.53822e-09
0.0840003
3.73636e-09
0.0840003
8.86355e-09
0.0840004
2.13004e-08
0.0840004
5.11234e-08
0.0840005
1.2111e-07
0.0840007
2.94675e-07
0.0840015
6.90267e-07
0.0840023
1.69454e-06
0.0840082
3.93871e-06
9.73219e-06
0.08401
0.0840003
8.17488e-16
0.0840003
3.65181e-15
0.0840003
1.33058e-14
0.0840003
4.13283e-14
0.0840003
1.13483e-13
0.0840003
2.76096e-13
0.0840003
6.90911e-13
0.0840003
1.64376e-12
0.0840003
4.01542e-12
0.0840003
9.51083e-12
0.0840003
2.32319e-11
0.0840003
5.4511e-11
0.0840003
1.33921e-10
0.0840003
3.11747e-10
0.0840003
7.68619e-10
0.0840003
1.78788e-09
0.0840003
4.39511e-09
0.0840004
1.02558e-08
0.0840004
2.50853e-08
0.0840005
5.89765e-08
0.0840005
1.42772e-07
0.084001
3.39097e-07
0.0840014
8.12403e-07
0.0840037
1.95159e-06
4.6168e-06
0.0840076
0.0840003
1.05038e-15
0.0840003
2.83714e-15
0.0840003
6.62838e-15
0.0840003
2.1264e-14
0.0840003
5.14734e-14
0.0840003
1.34712e-13
0.0840003
3.28829e-13
0.0840003
7.87649e-13
0.0840003
1.93735e-12
0.0840003
4.57155e-12
0.0840003
1.11304e-11
0.0840003
2.63824e-11
0.0840003
6.3499e-11
0.0840003
1.5209e-10
0.0840003
3.61734e-10
0.0840003
8.74068e-10
0.0840003
2.06047e-09
0.0840003
5.01851e-09
0.0840004
1.17407e-08
0.0840004
2.87202e-08
0.0840005
6.70701e-08
0.0840005
1.64015e-07
0.0840012
3.82924e-07
0.0840013
9.35273e-07
2.19132e-06
0.0840054
0.0840003
-1.08529e-15
0.0840003
5.13044e-16
0.0840003
3.39962e-15
0.0840003
9.11055e-15
0.0840003
2.45572e-14
0.0840003
5.93453e-14
0.0840003
1.47582e-13
0.0840003
3.69342e-13
0.0840003
8.72454e-13
0.0840003
2.15518e-12
0.0840003
5.03373e-12
0.0840003
1.23871e-11
0.0840003
2.89646e-11
0.0840003
7.06584e-11
0.0840003
1.66363e-10
0.0840003
4.02094e-10
0.0840003
9.56426e-10
0.0840003
2.28184e-09
0.0840003
5.48662e-09
0.0840003
1.29602e-08
0.0840004
3.14249e-08
0.0840004
7.35299e-08
0.0840006
1.79562e-07
0.0840011
4.17747e-07
1.02169e-06
0.0840019
0.0840003
9.25909e-17
0.0840003
-1.13776e-15
0.0840003
2.26381e-16
0.0840003
5.44269e-16
0.0840003
4.73037e-15
0.0840003
1.68704e-14
0.0840003
5.09484e-14
0.0840003
1.3846e-13
0.0840003
3.37965e-13
0.0840003
8.30873e-13
0.0840003
1.97128e-12
0.0840003
4.75881e-12
0.0840003
1.12962e-11
0.0840003
2.72002e-11
0.0840003
6.4387e-11
0.0840003
1.55865e-10
0.0840003
3.66901e-10
0.0840003
8.88685e-10
0.0840003
2.09222e-09
0.0840003
5.0632e-09
0.0840004
1.19276e-08
0.0840004
2.87089e-08
0.0840006
6.79497e-08
0.0840006
1.62722e-07
3.86605e-07
0.0840016
0.0840003
0.0840003
0.0840003
0.0840003
0.0840003
0.0840003
0.0840003
0.0840003
0.0840003
0.0840003
0.0840003
0.0840003
0.0840003
0.0840003
0.0840003
0.0840003
0.0840003
0.0840003
0.0840003
0.0840003
0.0840003
0.0840004
0.0840005
0.0840005
0.0840011
0.0478825
0.0398085
0.0320024
0.0159144
0.0251914
0.00682281
0.0224916
0.00267708
0.0223073
0.000153042
0.0241607
-0.00190351
0.0262553
-0.00217427
0.0275011
-0.00132947
0.027959
-0.000543134
0.0279308
-6.22022e-05
0.0276294
0.000208999
0.0274136
0.000118285
0.0272861
2.00659e-05
0.0272705
-8.99827e-05
0.027303
-0.000139416
0.0273373
-0.000138521
0.0273603
-0.000121901
0.0273546
-9.29561e-05
0.0273299
-6.6292e-05
0.0273001
-5.78593e-05
0.0272837
-6.78095e-05
0.0272898
-8.44601e-05
0.0273169
-9.88193e-05
0.0273584
-0.00010798
0.0274086
-0.000113182
0.0274644
-0.000116474
0.0275247
-0.000119246
0.0275903
-0.000121886
0.0276617
-0.00012429
0.0277382
-0.000126259
0.0278176
-0.000127692
0.027897
-0.000128598
0.0279735
-0.000129044
0.0280444
-0.000129101
0.0281077
-0.000128819
0.028162
-0.000128239
0.0282069
-0.000127398
0.0282428
-0.000126341
0.0282695
-0.000125129
0.0282866
-0.00012391
0.0282961
-0.000122501
0.0282995
-0.000120887
0.0282943
-0.000119669
0.0282795
-0.000118758
0.0282595
-0.000117377
0.0282373
-0.000115948
0.0282151
-0.000114738
0.0281937
-0.000114222
0.0281743
-0.000114805
0.0281578
-0.000121408
0.0281596
-0.000136852
0.0281466
-0.00018608
0.0281892
-0.000239321
0.0283019
-0.000329769
0.0285229
-0.000514985
0.0289819
-0.000916637
0.029967
-0.00179337
0.0321862
-0.00358848
0.0361649
-0.00653541
0.0415381
-0.00979823
0.0472698
-0.0114164
0.0523116
-0.0108463
0.0561282
-0.00810901
0.0589822
-0.00439672
0.0604925
-0.00194526
0.0611132
-0.000414593
0.0609883
0.000468005
0.0609205
0.000244657
0.0612421
-0.000528379
0.0619819
-0.00145779
0.0628304
-0.00146323
0.06337
-0.00104379
0.0638277
-0.000787563
0.0640986
-0.000444053
0.0641779
-3.94357e-05
0.0640684
0.00040034
0.0638254
0.000479089
0.0635925
0.000392078
0.063379
0.000307909
0.0631903
0.000186763
0.0630412
1.62492e-05
0.0629518
-0.000112471
0.0628645
-0.000216962
0.0627815
-0.000198072
0.0626411
-8.95939e-05
0.0624369
3.40536e-05
0.0621726
0.000180494
0.061861
0.000289272
0.0615083
0.000352557
0.0611569
0.000369661
0.060794
0.000354166
0.0604427
0.000345181
0.0600885
0.000338197
0.059731
0.000326506
0.0593871
0.000314029
0.0590364
0.000302774
0.0586952
0.000293764
0.0583454
0.000294387
0.058003
0.000288345
0.000325698
0.0631803
0.0593227
0.0489695
0.0301608
0.041848
0.0139545
0.03892
0.00558782
0.0376956
0.00133748
0.0365882
-0.000840854
0.0358766
-0.00152487
0.0360089
-0.00152868
0.0366285
-0.00123676
0.0372471
-0.00076468
0.037736
-0.000376337
0.0379191
-0.00016529
0.0379035
-6.92199e-05
0.0377573
-5.20389e-05
0.0375905
-8.16315e-05
0.0374763
-0.000135574
0.0374106
-0.000167224
0.0373805
-0.000166256
0.0373601
-0.000149554
0.0373331
-0.0001317
0.037293
-0.000124214
0.037241
-0.000126703
0.0371851
-0.000133741
0.0371327
-0.000142423
0.0370874
-0.000150881
0.0370493
-0.000158176
0.0370163
-0.000163772
0.0369859
-0.000167585
0.0369565
-0.000170069
0.0369275
-0.000171786
0.0368988
-0.000173148
0.0368709
-0.000174349
0.0368444
-0.000175426
0.0368191
-0.000176302
0.0367949
-0.000176917
0.0367707
-0.000177207
0.0367462
-0.000177224
0.0367195
-0.000176952
0.0366908
-0.000176557
0.0366578
-0.000176078
0.0366218
-0.000175488
0.0365821