/*--------------------------------*- C++ -*----------------------------------*\
  =========                 |
  \\      /  F ield         | OpenFOAM: The Open Source CFD Toolbox
   \\    /   O peration     | Website:  https://openfoam.org
    \\  /    A nd           | Version:  13
     \\/     M anipulation  |
\*---------------------------------------------------------------------------*/
FoamFile
{
    format      ascii;
    class       volScalarField;
    location    "1.5";
    object      T;
}
// * * * * * * * * * * * * * * * * * * * * * * * * * * * * * * * * * * * * * //

dimensions      [0 0 0 1 0 0 0];

internalField   nonuniform List<scalar> 
5250
(
1
1.00001
1.00003
1.00006
1.00016
1.0004
1.00097
1.00248
1.00587
1.01533
1.03713
1.09789
1.25986
1.70173
2.48231
2.76594
2.75979
2.75198
2.76093
2.77487
2.80367
2.82357
2.8272
2.82982
2.89449
1
1.00001
1.00003
1.00006
1.00016
1.00039
1.00099
1.00234
1.00615
1.01443
1.03787
1.09555
1.25803
1.69412
2.47475
2.76314
2.75844
2.75205
2.76036
2.77393
2.80243
2.82229
2.82582
2.82839
2.8934
1
1.00001
1.00002
1.00007
1.00015
1.00041
1.00089
1.00252
1.00547
1.01515
1.03547
1.09507
1.25062
1.67898
2.45718
2.75722
2.75462
2.75105
2.75804
2.77111
2.79887
2.81875
2.82219
2.82461
2.88962
1
1.00001
1.00003
1.00005
1.00016
1.00034
1.00098
1.00216
1.00584
1.01364
1.03569
1.09006
1.2427
1.6548
2.43066
2.74651
2.75013
2.74812
2.75418
2.76676
2.79372
2.81286
2.81556
2.81752
2.88348
1
1.00001
1.00002
1.00006
1.00014
1.00035
1.0009
1.00208
1.00559
1.01286
1.0342
1.08524
1.23077
1.62072
2.38707
2.73172
2.74657
2.74415
2.74898
2.76078
2.78498
2.80464
2.80844
2.8103
2.87087
1
1.00001
1.00002
1.00005
1.00014
1.00032
1.00086
1.00192
1.00531
1.01195
1.03226
1.07953
1.21588
1.5782
2.33357
2.71275
2.74274
2.73895
2.74135
2.75158
2.77417
2.79355
2.79596
2.79499
2.8565
1
1.00001
1.00002
1.00005
1.00013
1.00029
1.0008
1.00179
1.00478
1.01132
1.02927
1.07376
1.19753
1.53233
2.26146
2.68672
2.73737
2.73126
2.73204
2.74181
2.76369
2.77923
2.77873
2.77794
2.82997
1
1.00001
1.00002
1.00005
1.0001
1.0003
1.00064
1.00182
1.00392
1.01096
1.02531
1.06776
1.17608
1.47899
2.16722
2.65103
2.73194
2.7231
2.72163
2.72891
2.74388
2.76212
2.76292
2.75618
2.8021
1
1.00001
1.00002
1.00004
1.00011
1.00022
1.00066
1.00137
1.00393
1.00878
1.02361
1.05775
1.15502
1.41706
2.04729
2.60533
2.72155
2.70704
2.70274
2.70884
2.72298
2.73325
2.73102
2.72351
2.74167
1
1.00001
1.00001
1.00004
1.00008
1.00023
1.00047
1.00138
1.00299
1.00819
1.01911
1.05044
1.1294
1.35137
1.90024
2.5415
2.70799
2.69362
2.68491
2.68878
2.69614
2.70605
2.69743
2.66121
2.65703
1
1
1.00001
1.00003
1.00008
1.00016
1.00047
1.00101
1.00279
1.00634
1.01669
1.04054
1.10658
1.28239
1.73883
2.45338
2.67838
2.66564
2.66028
2.6633
2.67096
2.66889
2.65104
2.59159
2.4964
1
1
1.00001
1.00003
1.00006
1.00016
1.00035
1.00095
1.00219
1.00565
1.01371
1.03481
1.08894
1.23722
1.63598
2.36631
2.6506
2.64561
2.63783
2.63308
2.63267
2.62362
2.59563
2.51867
2.40499
1
1
1.00001
1.00002
1.00005
1.00012
1.00032
1.00076
1.00188
1.00473
1.01148
1.02928
1.07406
1.19747
1.52844
2.23666
2.59568
2.6302
2.62211
2.6138
2.60613
2.58855
2.55065
2.47055
2.34492
1
1
1.00001
1.00002
1.00004
1.00011
1.00024
1.00065
1.00155
1.00384
1.00964
1.02374
1.06097
1.15981
1.4312
2.06396
2.52696
2.61098
2.59973
2.58737
2.57335
2.55357
2.52
2.45081
2.33366
1
1
1.00001
1.00001
1.00004
1.00008
1.00021
1.00049
1.00126
1.00308
1.00758
1.01905
1.04778
1.12498
1.33488
1.85926
2.43282
2.58738
2.58176
2.56741
2.54502
2.51643
2.47852
2.43047
2.33379
1
1
1
1.00001
1.00003
1.00006
1.00016
1.00038
1.00099
1.00228
1.00606
1.01398
1.03686
1.09169
1.24531
1.63861
2.30479
2.53851
2.5491
2.53638
2.51873
2.49256
2.44714
2.40155
2.33056
1
1
1
1.00001
1.00002
1.00005
1.00012
1.00032
1.0007
1.00196
1.00423
1.01183
1.02696
1.07245
1.18637
1.50005
2.1553
2.48578
2.52339
2.51281
2.49081
2.46701
2.42638
2.37669
2.32235
1
1
1
1.00001
1.00001
1.00004
1.00009
1.00024
1.00056
1.00141
1.00346
1.00852
1.02136
1.05377
1.14083
1.37631
1.9455
2.39149
2.48927
2.48417
2.46536
2.44231
2.40672
2.35679
2.30504
1
1
1
1
1.00001
1.00003
1.00007
1.00018
1.00039
1.0011
1.00234
1.00663
1.01467
1.03965
1.09803
1.26338
1.67704
2.26783
2.44899
2.45728
2.44354
2.41943
2.38928
2.34416
2.29353
1
1
1
1
1.00001
1.00002
1.00005
1.00011
1.00033
1.00069
1.00195
1.00428
1.01152
1.02712
1.07103
1.18321
1.48615
2.09493
2.38768
2.42475
2.41527
2.39127
2.36446
2.32855
2.28488
1
1
1
1
1.00001
1.00001
1.00004
1.00008
1.00024
1.00049
1.00143
1.00301
1.00839
1.01915
1.05077
1.12835
1.34369
1.85955
2.28315
2.39118
2.3907
2.37271
2.34236
2.30843
2.26979
1
1
1
1
1
1.00001
1.00003
1.00006
1.00016
1.00035
1.00095
1.00208
1.00576
1.01273
1.03428
1.08303
1.22042
1.57112
2.13113
2.32894
2.35667
2.34788
2.32662
2.29282
2.25942
1
1
1
1
1
1.00001
1.00002
1.00005
1.0001
1.00028
1.00057
1.00165
1.00351
1.00968
1.02224
1.05856
1.1484
1.39405
1.93671
2.25878
2.3209
2.31759
2.30165
2.27466
2.23927
1
1
1
1
1
1.00001
1.00001
1.00003
1.00007
1.00017
1.00043
1.00101
1.0026
1.00601
1.01577
1.03754
1.09833
1.25505
1.65537
2.13188
2.27834
2.29087
2.28063
2.258
2.22748
1
1
1
1
1
1
1.00001
1.00002
1.00004
1.00012
1.00025
1.00074
1.00153
1.00435
1.00956
1.02547
1.06144
1.16126
1.42194
1.93782
2.20419
2.25556
2.2531
2.23584
2.21003
1
1
1
1
1
1
1.00001
1.00001
1.00003
1.00007
1.00019
1.00042
1.00111
1.00262
1.0065
1.01605
1.0397
1.10154
1.26439
1.66607
2.08746
2.21378
2.22746
2.21853
2.19754
1
1
1
1
1
1
1
1.00001
1.00002
1.00005
1.00011
1.0003
1.00066
1.00172
1.00404
1.01011
1.02472
1.06217
1.15901
1.41893
1.89691
2.14198
2.19059
2.19126
2.17671
1
1
1
1
1
1
1
1
1.00001
1.00003
1.00008
1.00016
1.00046
1.001
1.00266
1.0061
1.01564
1.03779
1.09702
1.25038
1.62722
2.02298
2.14958
2.16685
2.15978
1
1
1
1
1
1
1
1
1.00001
1.00002
1.00004
1.00012
1.00025
1.00067
1.00153
1.00387
1.00934
1.02304
1.05741
1.14643
1.38348
1.83011
2.07377
2.12735
2.13282
1
1
1
1
1
1
1
1
1
1.00001
1.00003
1.00007
1.00015
1.0004
1.00089
1.00243
1.00525
1.01433
1.03256
1.08589
1.21635
1.54619
1.94682
2.0838
2.10655
1
1
1
1
1
1
1
1
1
1.00001
1.00002
1.00004
1.0001
1.00023
1.00057
1.00137
1.00329
1.00828
1.01959
1.05004
1.12453
1.32627
1.73522
2.00272
2.0718
1
1
1
1
1
1
1
1
1
1
1.00001
1.00002
1.00006
1.00013
1.00035
1.00073
1.00208
1.00431
1.01195
1.0267
1.07009
1.17315
1.44526
1.84398
2.01593
1
1
1
1
1
1
1
1
1
1
1.00001
1.00001
1.00003
1.00008
1.0002
1.00044
1.0012
1.00252
1.00706
1.01532
1.041
1.09853
1.25879
1.61285
1.92542
1
1
1
1
1
1
1
1
1
1
1
1.00001
1.00002
1.00005
1.0001
1.00027
1.00062
1.00155
1.00374
1.00897
1.02236
1.05434
1.13814
1.35689
1.73946
1
1
1
1
1
1
1
1
1
1
1
1
1.00001
1.00003
1.00006
1.00015
1.00033
1.00091
1.00187
1.00532
1.01127
1.03039
1.07115
1.18553
1.45531
1
1
1
1
1
1
1
1
1
1
1
1
1.00001
1.00001
1.00004
1.00008
1.0002
1.00047
1.00113
1.00279
1.0065
1.01661
1.039
1.1002
1.25322
1
1
1
1
1
1
1
1
1
1
1
1
1
1.00001
1.00002
1.00004
1.00011
1.00024
1.00066
1.00136
1.00387
1.0081
1.022
1.05052
1.1309
1
1
1
1
1
1
1
1
1
1
1
1
1
1
1.00001
1.00002
1.00005
1.00014
1.0003
1.00084
1.00173
1.00485
1.01023
1.0274
1.06332
1
1
1
1
1
1
1
1
1
1
1
1
1
1
1.00001
1.00001
1.00003
1.00007
1.00018
1.0004
1.001
1.0024
1.00569
1.01425
1.03351
1
1
1
1
1
1
1
1
1
1
1
1
1
1
1
1.00001
1.00002
1.00004
1.00009
1.00021
1.00054
1.00119
1.00315
1.00688
1.01827
1
1
1
1
1
1
1
1
1
1
1
1
1
1
1
1
1.00001
1.00002
1.00004
1.00012
1.00024
1.00068
1.00142
1.00384
1.00845
1
1
1
1
1
1
1
1
1
1
1
1
1
1
1
1
1
1.00001
1.00002
1.00005
1.00014
1.0003
1.00077
1.00179
1.00431
1
1
1
1
1
1
1
1
1
1
1
1
1
1
1
1
1
1.00001
1.00001
1.00003
1.00006
1.00016
1.00038
1.00087
1.00224
1
1
1
1
1
1
1
1
1
1
1
1
1
1
1
1
1
1
1.00001
1.00001
1.00003
1.00008
1.00018
1.00045
1.00102
1
1
1
1
1
1
1
1
1
1
1
1
1
1
1
1
1
1
1
1.00001
1.00001
1.00004
1.00009
1.00022
1.00051
1
1
1
1
1
1
1
1
1
1
1
1
1
1
1
1
1
1
1
1
1.00001
1.00002
1.00005
1.0001
1.00026
1
1
1
1
1
1
1
1
1
1
1
1
1
1
1
1
1
1
1
1
1
1.00001
1.00002
1.00005
1.00011
1
1
1
1
1
1
1
1
1
1
1
1
1
1
1
1
1
1
1
1
1
1
1.00001
1.00002
1.00005
1
1
1
1
1
1
1
1
1
1
1
1
1
1
1
1
1
1
1
1
1
1
1
1.00001
1.00002
1
1
1
1
1
1
1
1
1
1
1
1
1
1
1
1
1
1
1
1
1
1
1
1.00001
1.00002
2.29205
2.12201
2.06843
2.09408
2.15391
2.21145
2.28422
2.3129
2.32961
2.32916
2.32992
2.33241
2.3384
2.34508
2.35212
2.35835
2.36235
2.36644
2.36893
2.36951
2.36951
2.36937
2.36888
2.36775
2.36599
2.36383
2.36136
2.35856
2.35535
2.35172
2.34777
2.3437
2.33972
2.33601
2.33274
2.32997
2.32776
2.32605
2.3248
2.32397
2.32356
2.32352
2.32362
2.32407
2.32503
2.32603
2.32681
2.32737
2.32773
2.32816
2.3291
2.33174
2.33603
2.34167
2.35203
2.36747
2.4015
2.46922
2.58194
2.74567
2.91487
3.06105
3.15686
3.20059
3.18267
3.17571
3.16394
3.14114
3.12895
3.1261
3.12204
3.11662
3.1108
3.10288
3.09299
3.07837
3.06371
3.04907
3.03927
3.02658
3.0218
3.01366
3.01056
3.0059
3.00129
2.99628
2.98955
2.98217
2.97333
2.96607
2.95611
2.95045
2.93997
2.93492
2.92542
2.91997
2.91212
2.90757
2.90283
2.90691
2.28045
2.18356
2.12786
2.08513
2.04881
2.01264
2.00637
2.0089
2.0197
2.04156
2.05406
2.06602
2.06692
2.06875
2.06967
2.07077
2.07302
2.07538
2.07727
2.07902
2.07939
2.07925
2.07885
2.07802
2.07694
2.07565
2.07415
2.07244
2.07053
2.06847
2.06628
2.06397
2.06154
2.05896
2.05626
2.05342
2.05054
2.04753
2.04467
2.04163
2.03898
2.03609
2.03362
2.03092
2.02858
2.02628
2.02425
2.02234
2.02097
2.01993
2.02052
2.02276
2.02661
2.03413
2.04561
2.07112
2.12374
2.20539
2.29461
2.36502
2.42092
2.47162
2.52605
2.59106
2.64671
2.68049
2.69324
2.68817
2.67382
2.65007
2.62204
2.60051
2.58525
2.5776
2.5738
2.57484
2.57614
2.57526
2.57168
2.56437
2.5543
2.54283
2.53252
2.52176
2.51399
2.50679
2.50296
2.50037
2.49925
2.4985
2.49765
2.49667
2.49575
2.49447
2.49332
2.49204
2.4906
2.49069
2.49169
2.50148
2.26529
2.17916
2.10295
2.02973
1.95754
1.9041
1.87092
1.86747
1.87
1.88122
1.89507
1.91101
1.91745
1.92401
1.92486
1.92643
1.92699
1.9278
1.9288
1.92972
1.93053
1.93065
1.93055
1.93029
1.92974
1.92896
1.92802
1.92695
1.92573
1.92439
1.92292
1.92135
1.91964
1.91781
1.91574
1.91355
1.91105
1.90849
1.90566
1.90281
1.89981
1.89677
1.89367
1.89041
1.88724
1.88401
1.88087
1.87822
1.87565
1.87527
1.87619
1.87938
1.88528
1.89665
1.92267
1.97796
2.06035
2.13922
2.18383
2.18822
2.18799
2.18788
2.19845
2.2231
2.2612
2.31125
2.36998
2.4105
2.44035
2.43251
2.428
2.4174
2.39371
2.36781
2.34702
2.33161
2.32119
2.31383
2.31024
2.30888
2.30624
2.30126
2.29419
2.28576
2.27828
2.27028
2.26381
2.25738
2.25247
2.2484
2.24535
2.24299
2.24111
2.23948
2.23809
2.23698
2.23574
2.23584
2.23672
2.24576
2.23289
2.15468
2.074
2.00105
1.93434
1.88265
1.8385
1.8098
1.7895
1.78645
1.78792
1.79246
1.80337
1.81107
1.8189
1.8216
1.82329
1.82438
1.82439
1.82443
1.82461
1.82494
1.82544
1.82556
1.82547
1.82523
1.82466
1.82367
1.82243
1.82097
1.81927
1.8173
1.815
1.81234
1.8093
1.80587
1.80206
1.79793
1.79354
1.78897
1.78437
1.77966
1.77525
1.77051
1.76673
1.76222
1.75938
1.75613
1.75609
1.75694
1.75994
1.76615
1.78167
1.81506
1.88059
1.96953
2.04945
2.08633
2.07769
2.06106
2.04432
2.02656
2.01727
2.01829
2.02785
2.05039
2.08535
2.12621
2.18289
2.23261
2.27273
2.29983
2.29076
2.28347
2.2708
2.24612
2.22092
2.19646
2.17951
2.16426
2.15594
2.15069
2.14735
2.14427
2.14035
2.13496
2.12888
2.12233
2.11617
2.10978
2.10433
2.09846
2.09426
2.08857
2.08561
2.08054
2.07808
2.07469
2.07381
2.07959
2.23396
2.1481
2.07149
2.00372
1.93781
1.88327
1.83228
1.79146
1.75785
1.73719
1.72635
1.7267
1.72814
1.73216
1.73993
1.74512
1.74992
1.75254
1.75345
1.75438
1.75428
1.75395
1.75357
1.75325
1.75294
1.75248
1.75181
1.75091
1.74974
1.74832
1.74653
1.74443
1.74191
1.7391
1.73594
1.73253
1.72894
1.72513
1.72128
1.7172
1.71325
1.70895
1.70508
1.7007
1.69697
1.69311
1.68992
1.6894
1.69006
1.69254
1.69928
1.7174
1.7577
1.82928
1.92208
2.0016
2.03053
2.01867
2.00601
1.98513
1.96609
1.94434
1.93137
1.92062
1.91784
1.92086
1.92959
1.94955
1.9781
2.01248
2.06179
2.10771
2.15953
2.194
2.21861
2.20775
2.19771
2.18301
2.15953
2.13271
2.1105
2.0915
2.07777
2.06809
2.06078
2.05627
2.05274
2.04911
2.04594
2.0414
2.03625
2.02973
2.0243
2.01738
2.01106
2.00509
1.99794
1.99383
1.98801
1.99147
2.23966
2.1547
2.07653
2.00923
1.94622
1.8899
1.8399
1.79773
1.76052
1.73174
1.70707
1.69286
1.68353
1.68361
1.68469
1.68737
1.6938
1.69685
1.70238
1.70303
1.70442
1.70435
1.70378
1.70247
1.70104
1.69971
1.69864
1.69753
1.69644
1.69503
1.69345
1.69151
1.68937
1.68694
1.6843
1.68146
1.67846
1.67528
1.67197
1.66849
1.6649
1.66131
1.65742
1.65405
1.65057
1.64757
1.64771
1.64871
1.65119
1.65984
1.68126
1.72861
1.80976
1.90582
1.97395
1.99494
1.98319
1.96832
1.95472
1.9337
1.91585
1.89736
1.88293
1.86943
1.86148
1.85392
1.85332
1.85515
1.8603
1.87209
1.89301
1.91815
1.95487
1.9913
2.04278
2.08412
2.12206
2.14408
2.1326
2.12206
2.10898
2.08645
2.0626
2.04219
2.02439
2.01378
2.00303
1.99642
1.99121
1.9866
1.98353
1.97903
1.9738
1.96801
1.96014
1.95407
1.94435
1.94002
1.93122
1.93296
2.24605
2.16992
2.09288
2.02344
1.96076
1.90474
1.85288
1.80829
1.76695
1.73323
1.70331
1.67962
1.66051
1.64969
1.64397
1.64418
1.64511
1.64699
1.65154
1.65335
1.65723
1.65738
1.65797
1.65779
1.65712
1.65564
1.65439
1.65281
1.65178
1.65021
1.64892
1.6472
1.64546
1.64346
1.64122
1.63886
1.63624
1.6335
1.63056
1.62746
1.6244
1.62097
1.61791
1.6152
1.61262
1.61288
1.61449
1.61804
1.62918
1.65561
1.71087
1.80118
1.90444
1.95454
1.96913
1.96044
1.94606
1.92997
1.91426
1.8959
1.8801
1.86291
1.84919
1.83552
1.82446
1.81477
1.80725
1.80159
1.79747
1.79792
1.80005
1.80505
1.81576
1.83465
1.86022
1.88704
1.9323
1.97155
2.02031
2.05783
2.08346
2.07283
2.06477
2.05331
2.03342
2.01404
1.99149
1.97794
1.96172
1.95352
1.94304
1.93694
1.92931
1.92429
1.91688
1.91267
1.90469
1.90046
1.89183
1.89299
2.24338
2.17662
2.10789
2.04254
1.98017
1.92395
1.87144
1.82467
1.78194
1.74401
1.71043
1.68314
1.65943
1.64128
1.62593
1.61766
1.61207
1.6118
1.61237
1.61347
1.61636
1.61831
1.62163
1.62184
1.62249
1.62228
1.62146
1.61976
1.61757
1.61559
1.6138
1.61219
1.61059
1.60878
1.60681
1.60467
1.60243
1.60002
1.59742
1.59488
1.59212
1.58929
1.58724
1.58594
1.58631
1.58794
1.59335
1.60741
1.64014
1.706
1.80239
1.90738
1.94147
1.95
1.94488
1.93081
1.91754
1.89944
1.88513
1.86856
1.85434
1.83964
1.82757
1.81518
1.8046
1.79382
1.78391
1.77495
1.76585
1.7593
1.75115
1.74756
1.74495
1.74587
1.7495
1.75838
1.77605
1.79522
1.83096
1.86045
1.91294
1.95562
1.99997
2.02883
2.01905
2.01314
2.00238
1.98619
1.96416
1.94753
1.92566
1.91549
1.89966
1.89235
1.88061
1.87528
1.86597
1.86273
1.85605
1.85713
2.23904
2.17984
2.11855
2.05886
2.00047
1.94598
1.89457
1.84763
1.80385
1.7651
1.72875
1.69763
1.66878
1.64551
1.62502
1.60933
1.59661
1.58971
1.58498
1.58462
1.58503
1.58626
1.58742
1.58995
1.59039
1.5914
1.59142
1.59102
1.58999
1.58828
1.58635
1.58442
1.58262
1.58097
1.57941
1.57782
1.57609
1.57427
1.57232
1.57037
1.56841
1.56674
1.56705
1.56821
1.57029
1.57742
1.5952
1.6348
1.71423
1.81462
1.9157
1.94242
1.94077
1.93536
1.92552
1.91003
1.89413
1.87727
1.86358
1.84837
1.83571
1.82182
1.81004
1.79745
1.78586
1.77391
1.76233
1.75039
1.7388
1.72731
1.7161
1.70753
1.69718
1.69244
1.68553
1.68484
1.68563
1.68954
1.69714
1.71317
1.73711
1.75948
1.80393
1.83873
1.89466
1.93545
1.96921
1.96404
1.95825
1.94841
1.93288
1.91653
1.89416
1.88037
1.8601
1.8527
1.83854
1.83362
1.82378
1.82464
2.23379
2.17958
2.12396
2.06885
2.01478
1.96303
1.91371
1.86785
1.82477
1.78545
1.74902
1.71613
1.68607
1.65957
1.63547
1.61555
1.59835
1.58528
1.5749
1.56906
1.56539
1.56489
1.56523
1.5662
1.56718
1.56895
1.56963
1.57066
1.57063
1.57021
1.56915
1.56761
1.56585
1.56417
1.5627
1.56112
1.55983
1.5584
1.55694
1.55578
1.55498
1.55553
1.55742
1.56064
1.56975
1.5916
1.63913
1.72965
1.83822
1.92164
1.94349
1.93773
1.9298
1.91846
1.90554
1.88872
1.87313
1.85694
1.84254
1.82792
1.81455
1.80089
1.78872
1.77567
1.76377
1.75104
1.73828
1.72613
1.71316
1.70163
1.68969
1.67832
1.66737
1.65813
1.64723
1.64215
1.63314
1.62997
1.62746
1.62813
1.6311
1.63786
1.65273
1.66971
1.70065
1.72513
1.77621
1.81541
1.8691
1.89796
1.90526
1.90079
1.8886
1.8782
1.86251
1.84763
1.8266
1.8179
1.80035
1.80094
2.22434
2.1782
2.12761
2.07682
2.02688
1.97853
1.93198
1.88791
1.84605
1.80714
1.77058
1.73715
1.70591
1.67791
1.65196
1.62951
1.60891
1.59213
1.57744
1.56655
1.55791
1.55288
1.54973
1.54874
1.54894
1.54966
1.55037
1.55167
1.55232
1.5535
1.55347
1.55304
1.55197
1.5507
1.54899
1.54753
1.54611
1.54468
1.54356
1.54367
1.54443
1.54659
1.55128
1.56273
1.58937
1.64582
1.74666
1.86399
1.92487
1.94441
1.93754
1.92544
1.91446
1.89929
1.88389
1.86649
1.8506
1.83475
1.82056
1.80613
1.79263
1.77917
1.76621
1.75332
1.74089
1.7281
1.71635
1.70398
1.69199
1.68048
1.66776
1.65739
1.6451
1.63481
1.62392
1.6141
1.60354
1.59683
1.58689
1.58329
1.57646
1.57517
1.57529
1.57756
1.58288
1.59461
1.61285
1.63198
1.66823
1.69627
1.75335
1.79106
1.83389
1.84922
1.84218
1.83597
1.82593
1.81517
1.80015
1.79512
2.2197
2.17577
2.13042
2.08395
2.03737
1.99179
1.94753
1.90535
1.86497
1.82685
1.79083
1.75711
1.72559
1.69653
1.66961
1.64531
1.62312
1.60358
1.58615
1.57158
1.55915
1.54977
1.54247
1.53836
1.53566
1.53527
1.53559
1.53632
1.53747
1.53859
1.53963
1.5402
1.53999
1.53937
1.53804
1.53674
1.53533
1.53405
1.53442
1.53549
1.5376
1.5436
1.55711
1.58881
1.65506
1.7626
1.88328
1.92686
1.94107
1.93434
1.9235
1.90965
1.8936
1.87645
1.86044
1.84357
1.82819
1.81263
1.79797
1.78372
1.77008
1.75683
1.74396
1.73139
1.71895
1.70696
1.69464
1.68284
1.67098
1.6595
1.64798
1.63683
1.62473
1.61447
1.60197
1.59235
1.58078
1.57115
1.56071
1.55263
1.54257
1.53764
1.52916
1.52662
1.52207
1.52231
1.5237
1.52829
1.5358
1.55035
1.57224
1.59273
1.63405
1.66685
1.72647
1.75282
1.79439
1.78851
1.78562
1.78506
2.20625
2.16845
2.12951
2.08767
2.04488
2.00242
1.96066
1.92036
1.8816
1.84461
1.80938
1.77619
1.74479
1.71553
1.68814
1.66282
1.63941
1.61811
1.5987
1.58157
1.56637
1.55367
1.54295
1.53485
1.52874
1.5249
1.52273
1.52196
1.52211
1.52252
1.52353
1.52409
1.52499
1.52509
1.52487
1.52434
1.52383
1.52439
1.52569
1.52805
1.53523
1.55101
1.58776
1.66472
1.77751
1.89736
1.93135
1.93712
1.93129
1.9203
1.90598
1.88831
1.87084
1.85356
1.83737
1.82083
1.8055
1.79016
1.77599
1.76191
1.74832
1.73527
1.72232
1.71006
1.69763
1.68574
1.67382
1.66245
1.65063
1.63956
1.62754
1.61684
1.60497
1.59447
1.58254
1.57248
1.56022
1.55102
1.53916
1.53023
1.51965
1.51117
1.50141
1.49484
1.48551
1.48188
1.47464
1.47243
1.47053
1.47116
1.47362
1.47956
1.4917
1.5061
1.53159
1.55634
1.5993
1.64094
1.70233
1.71048
2.19526
2.16247
2.12628
2.08818
2.04935
2.00996
1.97082
1.93235
1.89512
1.85927
1.82492
1.79226
1.76129
1.73212
1.70468
1.67909
1.65513
1.63303
1.6125
1.59389
1.57691
1.56193
1.54878
1.53761
1.52836
1.52123
1.51577
1.51223
1.5101
1.5091
1.50919
1.50958
1.5103
1.51094
1.51183
1.51256
1.51376
1.51616
1.51937
1.5273
1.54577
1.58668
1.67383
1.79004
1.90587
1.93509
1.93334
1.92632
1.91536
1.90127
1.88363
1.86535
1.84767
1.83074
1.8147
1.79893
1.78384
1.76892
1.75443
1.74061
1.72704
1.7143
1.70137
1.68929
1.67684
1.66533
1.65324
1.64199
1.63027
1.61931
1.60778
1.59697
1.58508
1.57458
1.5625
1.55245
1.54056
1.53096
1.51914
1.51036
1.49867
1.49052
1.4796
1.47169
1.4618
1.45471
1.44537
1.44023
1.43173
1.42887
1.42306
1.42171
1.42102
1.42223
1.42633
1.43329
1.44891
1.464
1.49944
1.51479
2.18076
2.14984
2.11827
2.08587
2.05024
2.01422
1.97809
1.9422
1.90693
1.87271
1.83957
1.80789
1.77749
1.74869
1.72117
1.69531
1.67078
1.64788
1.62646
1.6066
1.5883
1.57162
1.55646
1.54311
1.53131
1.5214
1.51317
1.50672
1.50189
1.49891
1.49678
1.49632
1.49665
1.49744
1.49867
1.50122
1.50332
1.50822
1.5187
1.54077
1.58801
1.6861
1.80349
1.90849
1.9375
1.93304
1.92272
1.91085
1.89591
1.87867
1.86055
1.84287
1.82556
1.8091
1.79327
1.77777
1.76269
1.74791
1.73364
1.71989
1.70627
1.69351
1.68044
1.66849
1.65594
1.64451
1.63241
1.62141
1.60952
1.59871
1.5868
1.57616
1.5644
1.55399
1.54223
1.53218
1.52033
1.51077
1.49916
1.49005
1.47879
1.47026
1.45918
1.4513
1.44055
1.43313
1.42304
1.41606
1.40667
1.40077
1.39184
1.3877
1.38015
1.37784
1.37306
1.37282
1.37328
1.37608
1.38456
1.38701
2.17028
2.14184
2.11163
2.07937
2.04811
2.01475
1.98105
1.94764
1.91459
1.88228
1.85087
1.82035
1.79106
1.76279
1.73595
1.71012
1.68588
1.66259
1.64088
1.6203
1.60108
1.58325
1.5667
1.55164
1.53805
1.52583
1.51536
1.50654
1.49892
1.49361
1.48913
1.4864
1.48572
1.48629
1.48809
1.49052
1.49613
1.50839
1.53415
1.58671
1.69486
1.81748
1.90746
1.93604
1.93005
1.92087
1.90782
1.89178
1.87326
1.85539
1.83778
1.8211
1.80426
1.78819
1.77227
1.7571
1.74188
1.72734
1.7127
1.69897
1.68513
1.67239
1.65922
1.64728
1.63454
1.62313
1.61081
1.59975
1.58783
1.57707
1.56534
1.55484
1.54302
1.53279
1.52097
1.51114
1.49949
1.49019
1.47868
1.4699
1.45861
1.45022
1.43927
1.43127
1.42066
1.41314
1.40283
1.3958
1.38588
1.37927
1.36985
1.36382
1.35488
1.3499
1.34158
1.33809
1.33159
1.3297
1.32747
1.32705
2.15294
2.1267
2.10125
2.07393
2.04438
2.01375
1.9823
1.95104
1.91991
1.88941
1.8594
1.83033
1.80207
1.77469
1.74848
1.72312
1.69893
1.67593
1.65391
1.63313
1.61356
1.59503
1.57782
1.56173
1.54708
1.53331
1.52123
1.5106
1.50026
1.49345
1.48582
1.48123
1.47907
1.47957
1.48188
1.4871
1.49949
1.5277
1.58384
1.69736
1.82462
1.90655
1.93207
1.92577
1.91573
1.90359
1.8875
1.86924
1.84964
1.83159
1.81458
1.79854
1.78232
1.76651
1.75069
1.73534
1.72009
1.70546
1.69086
1.67712
1.6633
1.65044
1.63721
1.62509
1.6124
1.60099
1.58878
1.57788
1.56593
1.5553
1.54356
1.53316
1.52167
1.5116
1.50025
1.49061
1.47931
1.4701
1.4589
1.45013
1.43912
1.43084
1.42005
1.41221
1.40168
1.39422
1.384
1.37691
1.36701
1.36031
1.35074
1.34445
1.33527
1.32945
1.32068
1.31559
1.30728
1.30328
1.29629
1.29488
2.14046
2.11436
2.08891
2.06302
2.0363
2.00807
1.98041
1.95128
1.92224
1.89343
1.86547
1.8377
1.81091
1.78471
1.75914
1.73481
1.71097
1.68813
1.6665
1.64534
1.62554
1.60672
1.58884
1.57177
1.55653
1.54161
1.52765
1.5166
1.50395
1.49505
1.48716
1.47897
1.47883
1.48004
1.48413
1.49568
1.52397
1.58271
1.6981
1.82892
1.9062
1.92673
1.91887
1.91017
1.89578
1.87904
1.86099
1.84249
1.82403
1.80659
1.78995
1.77422
1.75848
1.74309
1.72757
1.71245
1.69733
1.6829
1.66841
1.6549
1.64106
1.62843
1.61526
1.60344
1.59077
1.57947
1.56722
1.55635
1.54458
1.53415
1.5227
1.51262
1.50134
1.49154
1.48037
1.47088
1.45981
1.45078
1.43986
1.4313
1.42054
1.41235
1.40176
1.39397
1.38361
1.37624
1.36616
1.35918
1.34937
1.34273
1.3332
1.32688
1.31768
1.31173
1.30287
1.29736
1.28883
1.28394
1.27614
1.27371
2.12278
2.10237
2.07715
2.05418
2.03034
2.00442
1.97726
1.95015
1.92259
1.89536
1.86829
1.84229
1.81653
1.79174
1.76736
1.7436
1.72074
1.6984
1.67682
1.65621
1.63628
1.61696
1.59916
1.58182
1.56487
1.55076
1.53518
1.52216
1.51106
1.49818
1.49084
1.48387
1.48463
1.48842
1.49936
1.52696
1.59065
1.69862
1.82847
1.90708
1.92391
1.91273
1.90168
1.88799
1.86824
1.84855
1.83012
1.81348
1.79707
1.78077
1.76442
1.74878
1.73344
1.71875
1.70387
1.68936
1.67468
1.66062
1.64642
1.63324
1.61975
1.60735
1.59434
1.58249
1.56994
1.55877
1.54674
1.53613
1.52446
1.51421
1.50282
1.49287
1.4817
1.47205
1.46104
1.45177
1.44093
1.43207
1.42132
1.41285
1.40221
1.39415
1.38373
1.3761
1.36595
1.35871
1.34879
1.3419
1.33224
1.32571
1.31634
1.31017
1.30113
1.29533
1.28659
1.28118
1.27269
1.26778
1.25986
1.25729
2.10327
2.08753
2.06388
2.04026
2.01784
1.99575
1.97145
1.94667
1.92117
1.89536
1.86982
1.8447
1.82003
1.79616
1.77274
1.74987
1.72775
1.70595
1.68504
1.66499
1.64493
1.62682
1.60813
1.59082
1.57514
1.55782
1.54472
1.52986
1.51664
1.50704
1.49583
1.49631
1.49934
1.50923
1.53611
1.59954
1.71173
1.83566
1.90575
1.92364
1.91123
1.89319
1.8785
1.85912
1.83763
1.81774
1.8002
1.78505
1.7697
1.7544
1.7387
1.72379
1.70892
1.69487
1.68045
1.66659
1.65217
1.63867
1.62469
1.61197
1.59845
1.58642
1.57341
1.56203
1.54953
1.5386
1.52652
1.51603
1.50441
1.49437
1.48307
1.47336
1.46224
1.45283
1.4419
1.43282
1.42204
1.41333
1.4027
1.39442
1.38397
1.37612
1.36586
1.35838
1.34833
1.34122
1.33141
1.32468
1.31516
1.30879
1.29957
1.29356
1.28466
1.27901
1.27038
1.26509
1.25667
1.25184
1.24394
1.24142
2.08327
2.07568
2.0569
2.03277
2.00975
1.98728
1.96424
1.94062
1.91699
1.89294
1.86953
1.84563
1.82234
1.79926
1.77698
1.75506
1.73372
1.71284
1.69278
1.67235
1.65412
1.63455
1.61706
1.60022
1.58194
1.56824
1.55105
1.53785
1.52546
1.51297
1.51214
1.51432
1.52371
1.5502
1.61383
1.73465
1.8577
1.90977
1.92233
1.91473
1.89318
1.87026
1.85141
1.83276
1.81205
1.7925
1.77435
1.75851
1.7431
1.72876
1.71373
1.69932
1.68445
1.67051
1.65615
1.64268
1.62866
1.61568
1.602
1.58969
1.57647
1.56489
1.55206
1.54096
1.52853
1.51796
1.50607
1.49598
1.48448
1.47468
1.46344
1.45395
1.44295
1.43379
1.42299
1.41417
1.40357
1.39512
1.38468
1.3766
1.36631
1.35859
1.34849
1.34117
1.33131
1.32439
1.31479
1.30824
1.29889
1.2927
1.28365
1.27781
1.26906
1.26355
1.25505
1.24988
1.24158
1.23685
1.22904
1.22658
2.04762
2.05186
2.04154
2.02242
1.99974
1.9798
1.95889
1.93693
1.91448
1.89162
1.86843
1.84612
1.82377
1.80171
1.7802
1.75926
1.73829
1.71883
1.69815
1.68015
1.66035
1.64233
1.62513
1.60608
1.59165
1.57338
1.55957
1.54539
1.53241
1.53012
1.53227
1.54197
1.56921
1.63648
1.75932
1.88818
1.92881
1.92584
1.91733
1.90385
1.87207
1.84699
1.82705
1.80952
1.79085
1.7719
1.7529
1.73554
1.71896
1.70407
1.6889
1.6747
1.65977
1.64584
1.63145
1.61829
1.60464
1.59229
1.5791
1.56745
1.55452
1.54343
1.53083
1.52034
1.50819
1.49809
1.48632
1.47651
1.46514
1.45567
1.44467
1.43549
1.42471
1.41579
1.40518
1.39656
1.38612
1.37783
1.36758
1.35966
1.3496
1.34208
1.33223
1.32511
1.31547
1.3087
1.29928
1.29286
1.28369
1.27762
1.26874
1.26299
1.25437
1.24891
1.24052
1.23538
1.22716
1.22246
1.21472
1.21225
2.0135
2.02813
2.02291
2.0078
1.98583
1.96438
1.94577
1.92759
1.90834
1.88819
1.86671
1.845
1.8236
1.8024
1.78171
1.76068
1.7418
1.72122
1.70313
1.68375
1.66513
1.64833
1.62874
1.61406
1.59549
1.58111
1.56639
1.55305
1.5501
1.55246
1.5629
1.592
1.66558
1.78514
1.91954
1.95356
1.94228
1.92359
1.91024
1.88392
1.85202
1.82622
1.80566
1.78841
1.77072
1.75256
1.73369
1.71596
1.69877
1.6832
1.66744
1.65281
1.63762
1.62362
1.60925
1.59622
1.58283
1.57075
1.55796
1.54653
1.53402
1.52321
1.51094
1.50063
1.48861
1.47878
1.46722
1.4578
1.44667
1.43748
1.42662
1.41764
1.40702
1.39831
1.3879
1.37949
1.36929
1.36121
1.35121
1.34348
1.33365
1.32628
1.31663
1.30963
1.30016
1.29354
1.28429
1.27803
1.26902
1.26309
1.25433
1.24869
1.24017
1.23481
1.22651
1.22146
1.21334
1.20876
1.20111
1.19873
1.94264
1.99076
2.00101
1.99484
1.97943
1.95807
1.93723
1.91753
1.89837
1.87929
1.86022
1.84077
1.82123
1.80164
1.78157
1.76248
1.74239
1.72386
1.70552
1.6863
1.66991
1.65036
1.63519
1.61704
1.60206
1.5875
1.57385
1.5713
1.57431
1.58591
1.61771
1.69876
1.81481
1.94784
1.9779
1.96524
1.93573
1.91558
1.89315
1.86461
1.83501
1.80948
1.78803
1.7698
1.75235
1.73471
1.71663
1.6991
1.68187
1.66571
1.64948
1.6343
1.61876
1.60437
1.5898
1.57649
1.56289
1.55061
1.53772
1.52625
1.51377
1.50293
1.49069
1.48049
1.46866
1.45905
1.44762
1.43839
1.42736
1.41843
1.40777
1.39912
1.38872
1.38033
1.37013
1.36201
1.35201
1.34421
1.3344
1.32694
1.31728
1.31017
1.30068
1.29391
1.2846
1.27818
1.26905
1.26297
1.25404
1.24826
1.23955
1.23405
1.22557
1.22036
1.21212
1.20722
1.19919
1.19474
1.18718
1.1849
1.81117
1.94792
1.97336
1.97593
1.96775
1.95137
1.93191
1.9128
1.89405
1.87544
1.85627
1.83694
1.81768
1.79866
1.78015
1.76204
1.74327
1.7257
1.70622
1.69002
1.6713
1.65525
1.63815
1.62216
1.60821
1.59451
1.59259
1.59662
1.60971
1.64439
1.73259
1.84906
1.97358
2.00093
1.98837
1.95749
1.92296
1.89896
1.87522
1.84919
1.82129
1.79553
1.77318
1.7541
1.73639
1.71884
1.70114
1.68331
1.66575
1.64902
1.63254
1.617
1.60127
1.58655
1.57161
1.55782
1.54392
1.53126
1.51815
1.50638
1.49377
1.48278
1.47055
1.46035
1.44852
1.43906
1.42772
1.41886
1.40802
1.39953
1.38904
1.38078
1.37056
1.36255
1.35257
1.34486
1.33508
1.32766
1.31804
1.31091
1.30143
1.2946
1.28526
1.27874
1.26955
1.26333
1.25428
1.24835
1.23947
1.23383
1.22514
1.21979
1.21132
1.20626
1.19804
1.19328
1.18529
1.18095
1.17343
1.1712
1.58645
1.85985
1.93926
1.95503
1.95219
1.94118
1.92287
1.90291
1.88498
1.86784
1.85136
1.83389
1.81573
1.7969
1.77888
1.75996
1.74289
1.72509
1.70844
1.69088
1.67413
1.6583
1.64177
1.62853
1.61493
1.61357
1.61882
1.63407
1.67221
1.76701
1.88927
1.99334
2.02098
2.00889
1.98294
1.93919
1.90538
1.88113
1.85856
1.83495
1.80911
1.78405
1.76093
1.74059
1.72204
1.70439
1.68671
1.66897
1.65108
1.63385
1.6168
1.60097
1.5851
1.57035
1.55525
1.54138
1.52713
1.51421
1.50083
1.48889
1.4761
1.46499
1.4527
1.44251
1.43076
1.42147
1.41021
1.40159
1.39075
1.38256
1.37211
1.36424
1.35413
1.34652
1.33666
1.32931
1.31964
1.31254
1.30305
1.29621
1.28689
1.28031
1.27112
1.26477
1.2557
1.24961
1.24066
1.23483
1.22603
1.22047
1.21186
1.20658
1.1982
1.1932
1.18506
1.18034
1.1724
1.16806
1.16059
1.1583
1.33111
1.67918
1.86786
1.91813
1.93182
1.92817
1.91634
1.89799
1.87842
1.86034
1.84345
1.82726
1.81165
1.79466
1.77734
1.75946
1.74236
1.72451
1.70843
1.69158
1.67645
1.65978
1.64731
1.63467
1.63432
1.64095
1.65933
1.70268
1.80162
1.94414
2.02004
2.03435
2.0227
2.00481
1.96422
1.92274
1.89007
1.86552
1.84335
1.8214
1.7974
1.7734
1.75027
1.72908
1.7097
1.69131
1.67337
1.65557
1.63762
1.62018
1.60279
1.58663
1.57061
1.55596
1.54112
1.52733
1.51299
1.49983
1.48607
1.47378
1.46069
1.44936
1.43691
1.42658
1.41468
1.40524
1.39383
1.38516
1.37423
1.36615
1.35566
1.34798
1.33786
1.33048
1.32069
1.31358
1.30408
1.29722
1.28794
1.28132
1.27221
1.2658
1.25682
1.25062
1.24176
1.2358
1.22705
1.22135
1.21275
1.20734
1.1989
1.19378
1.18555
1.18069
1.17267
1.16809
1.16024
1.15603
1.14863
1.14645
1.16358
1.40078
1.72936
1.86954
1.90017
1.90785
1.90245
1.89016
1.87309
1.85521
1.83736
1.82045
1.80345
1.78854
1.77322
1.75768
1.74122
1.72472
1.70796
1.69228
1.67681
1.66371
1.65308
1.65352
1.6624
1.68473
1.73642
1.83751
2.00156
2.06055
2.05472
2.03339
2.01542
1.98506
1.94688
1.90984
1.87741
1.85155
1.82901
1.80793
1.78567
1.76314
1.74046
1.71901
1.69874
1.67964
1.66119
1.64317
1.62511
1.60772
1.59027
1.57401
1.55766
1.54271
1.5275
1.51363
1.49924
1.48599
1.47204
1.45949
1.44619
1.43465
1.42205
1.4115
1.39948
1.3899
1.37846
1.3697
1.35876
1.35061
1.34009
1.3324
1.32227