/*--------------------------------*- C++ -*----------------------------------*\
  =========                 |
  \\      /  F ield         | OpenFOAM: The Open Source CFD Toolbox
   \\    /   O peration     | Website:  https://openfoam.org
    \\  /    A nd           | Version:  13
     \\/     M anipulation  |
\*---------------------------------------------------------------------------*/
FoamFile
{
    format      ascii;
    class       volVectorField;
    location    "1.5";
    object      U;
}
// * * * * * * * * * * * * * * * * * * * * * * * * * * * * * * * * * * * * * //

dimensions      [0 1 -1 0 0 0 0];

internalField   nonuniform List<vector> 
5250
(
(3 -7.95068e-09 0)
(2.99999 7.91943e-08 0)
(2.99998 -9.02653e-08 0)
(2.99995 7.83955e-07 0)
(2.99986 -5.88812e-07 0)
(2.99967 4.72137e-06 0)
(2.99917 -2.64474e-06 0)
(2.99798 2.66459e-05 0)
(2.99496 -3.5087e-06 0)
(2.98754 0.000129886 0)
(2.96848 9.55412e-05 0)
(2.91798 0.000581005 0)
(2.77507 0.00118758 0)
(2.34978 0.00362141 0)
(1.25915 0.0107623 0)
(0.497222 0.0220817 0)
(0.549085 0.0272701 0)
(0.569186 0.0262814 0)
(0.52828 0.0274829 0)
(0.451367 0.0309197 0)
(0.35887 0.0341981 0)
(0.277607 0.0375015 0)
(0.202395 0.040197 0)
(0.123087 0.0426291 0)
(0.0585181 0.0467151 0)
(3 1.04003e-08 0)
(2.99999 1.05686e-07 0)
(2.99998 2.78517e-07 0)
(2.99995 1.01753e-06 0)
(2.99987 2.13161e-06 0)
(2.99967 6.771e-06 0)
(2.99919 1.2977e-05 0)
(2.99798 4.31086e-05 0)
(2.99505 7.94078e-05 0)
(2.98762 0.000259244 0)
(2.96887 0.000534664 0)
(2.91886 0.00153517 0)
(2.77767 0.00391215 0)
(2.3575 0.0111462 0)
(1.27341 0.0332071 0)
(0.508016 0.0667325 0)
(0.548871 0.0770739 0)
(0.565218 0.0720748 0)
(0.527617 0.0731488 0)
(0.451668 0.0795069 0)
(0.358662 0.0851927 0)
(0.277253 0.0903709 0)
(0.201615 0.0939317 0)
(0.121214 0.096063 0)
(0.0559887 0.0988687 0)
(3 3.73727e-08 0)
(2.99999 1.40928e-07 0)
(2.99998 7.01968e-07 0)
(2.99995 1.33661e-06 0)
(2.99987 5.14557e-06 0)
(2.99968 8.40066e-06 0)
(2.99921 3.29138e-05 0)
(2.99804 5.02968e-05 0)
(2.99514 0.000195334 0)
(2.98792 0.000336312 0)
(2.96954 0.00108679 0)
(2.9208 0.00240828 0)
(2.78303 0.00683839 0)
(2.37427 0.0188513 0)
(1.30519 0.0565481 0)
(0.532338 0.116641 0)
(0.54993 0.125196 0)
(0.561363 0.121933 0)
(0.530138 0.125192 0)
(0.456613 0.135156 0)
(0.36326 0.14587 0)
(0.281511 0.155005 0)
(0.205139 0.161606 0)
(0.123363 0.165751 0)
(0.056249 0.169631 0)
(3 3.05546e-08 0)
(2.99999 2.79956e-07 0)
(2.99998 6.89259e-07 0)
(2.99995 2.73455e-06 0)
(2.99987 5.08589e-06 0)
(2.99969 1.71999e-05 0)
(2.99923 3.33625e-05 0)
(2.99812 0.000100806 0)
(2.99529 0.000214005 0)
(2.98837 0.0005874 0)
(2.97059 0.00136662 0)
(2.92365 0.00361945 0)
(2.79137 0.00946321 0)
(2.39905 0.0266498 0)
(1.35605 0.0789085 0)
(0.567156 0.167632 0)
(0.551168 0.170734 0)
(0.562128 0.171494 0)
(0.535387 0.178116 0)
(0.465477 0.191025 0)
(0.372723 0.207013 0)
(0.29027 0.220378 0)
(0.212963 0.230686 0)
(0.128958 0.237798 0)
(0.0584611 0.243711 0)
(3 3.76443e-08 0)
(2.99999 3.22716e-07 0)
(2.99998 9.17653e-07 0)
(2.99995 3.15042e-06 0)
(2.99988 6.84817e-06 0)
(2.9997 2.08679e-05 0)
(2.99927 4.28143e-05 0)
(2.99819 0.000128958 0)
(2.99555 0.000265274 0)
(2.98888 0.000764898 0)
(2.97208 0.00171081 0)
(2.92751 0.00464094 0)
(2.80231 0.0119911 0)
(2.43227 0.0339029 0)
(1.42742 0.0991082 0)
(0.614669 0.218648 0)
(0.551999 0.218473 0)
(0.564908 0.21984 0)
(0.54283 0.230817 0)
(0.477372 0.246623 0)
(0.386433 0.267071 0)
(0.303394 0.285219 0)
(0.225154 0.300284 0)
(0.138295 0.311634 0)
(0.0629287 0.320589 0)
(3 6.56143e-08 0)
(2.99999 3.1365e-07 0)
(2.99998 1.32519e-06 0)
(2.99995 3.04118e-06 0)
(2.99989 9.81735e-06 0)
(2.99972 2.03511e-05 0)
(2.99932 6.20033e-05 0)
(2.9983 0.000127099 0)
(2.99582 0.00037537 0)
(2.98957 0.000799507 0)
(2.97383 0.00222459 0)
(2.93221 0.00530523 0)
(2.81576 0.0144789 0)
(2.47215 0.0402086 0)
(1.51681 0.117619 0)
(0.673501 0.271767 0)
(0.550608 0.26728 0)
(0.569225 0.267023 0)
(0.553825 0.282698 0)
(0.492608 0.301934 0)
(0.405039 0.326826 0)
(0.322406 0.35097 0)
(0.243225 0.37256 0)
(0.152404 0.390572 0)
(0.0699295 0.405295 0)
(3 7.08335e-08 0)
(2.99999 3.68655e-07 0)
(2.99998 1.50724e-06 0)
(2.99996 3.62845e-06 0)
(2.9999 1.11474e-05 0)
(2.99975 2.48795e-05 0)
(2.99936 6.85777e-05 0)
(2.99845 0.000157954 0)
(2.99611 0.000410192 0)
(2.99042 0.000985921 0)
(2.97583 0.00249786 0)
(2.93773 0.00627622 0)
(2.83138 0.0166304 0)
(2.51861 0.0464769 0)
(1.62794 0.135315 0)
(0.746282 0.328055 0)
(0.547982 0.31645 0)
(0.576102 0.313531 0)
(0.569668 0.333236 0)
(0.512814 0.356432 0)
(0.429959 0.386608 0)
(0.348987 0.418053 0)
(0.269355 0.448476 0)
(0.174251 0.477002 0)
(0.0818893 0.502973 0)
(3 7.02276e-08 0)
(2.99999 4.60976e-07 0)
(2.99999 1.54456e-06 0)
(2.99996 4.54952e-06 0)
(2.99991 1.14735e-05 0)
(2.99977 3.04877e-05 0)
(2.99943 7.26128e-05 0)
(2.99859 0.000187896 0)
(2.99651 0.000449262 0)
(2.99131 0.00114262 0)
(2.97822 0.00279461 0)
(2.94402 0.00714396 0)
(2.84914 0.0187294 0)
(2.57165 0.0522515 0)
(1.76244 0.151748 0)
(0.835874 0.385878 0)
(0.547224 0.365936 0)
(0.588279 0.359412 0)
(0.59265 0.382313 0)
(0.540383 0.409472 0)
(0.463563 0.445856 0)
(0.385736 0.486608 0)
(0.307039 0.529028 0)
(0.20865 0.574292 0)
(0.102424 0.62294 0)
(3 7.39503e-08 0)
(3 5.02401e-07 0)
(2.99999 1.63615e-06 0)
(2.99997 4.9121e-06 0)
(2.99992 1.22807e-05 0)
(2.9998 3.26593e-05 0)
(2.99949 7.84163e-05 0)
(2.99876 0.000202803 0)
(2.9969 0.000486042 0)
(2.99238 0.00124454 0)
(2.98083 0.00302917 0)
(2.951 0.00780276 0)
(2.86901 0.0202959 0)
(2.62999 0.0566498 0)
(1.92175 0.164376 0)
(0.945554 0.439405 0)
(0.556005 0.416327 0)
(0.610306 0.406417 0)
(0.626021 0.429872 0)
(0.578605 0.461068 0)
(0.5093 0.503755 0)
(0.436502 0.555203 0)
(0.361904 0.612928 0)
(0.265856 0.685075 0)
(0.140881 0.780351 0)
(3 7.59351e-08 0)
(3 4.85714e-07 0)
(2.99999 1.66538e-06 0)
(2.99997 4.76074e-06 0)
(2.99993 1.25034e-05 0)
(2.99983 3.18274e-05 0)
(2.99957 7.98621e-05 0)
(2.99893 0.000199755 0)
(2.99738 0.000495921 0)
(2.99343 0.00124577 0)
(2.98369 0.00311105 0)
(2.95841 0.00790894 0)
(2.88993 0.0207724 0)
(2.69255 0.0576437 0)
(2.10143 0.168804 0)
(1.08433 0.477729 0)
(0.593366 0.466892 0)
(0.651224 0.459276 0)
(0.675451 0.477018 0)
(0.632352 0.511577 0)
(0.570537 0.559222 0)
(0.505071 0.621007 0)
(0.441905 0.700342 0)
(0.363834 0.818471 0)
(0.214004 1.03852 0)
(3 6.79063e-08 0)
(3 4.40218e-07 0)
(2.99999 1.47296e-06 0)
(2.99998 4.30859e-06 0)
(2.99994 1.09806e-05 0)
(2.99985 2.86989e-05 0)
(2.99963 7.04502e-05 0)
(2.99911 0.000178056 0)
(2.99778 0.000439594 0)
(2.99456 0.00109737 0)
(2.98639 0.00273285 0)
(2.96574 0.0069108 0)
(2.9106 0.0178948 0)
(2.75475 0.0489793 0)
(2.29611 0.14216 0)
(1.26568 0.425021 0)
(0.676346 0.49581 0)
(0.710358 0.516767 0)
(0.734111 0.524 0)
(0.697924 0.559577 0)
(0.644679 0.61071 0)
(0.594466 0.681145 0)
(0.560959 0.779553 0)
(0.563051 0.928324 0)
(0.613933 1.18671 0)
(3 5.93421e-08 0)
(3 3.69553e-07 0)
(2.99999 1.29937e-06 0)
(2.99998 3.6e-06 0)
(2.99995 9.66002e-06 0)
(2.99987 2.40694e-05 0)
(2.9997 6.06213e-05 0)
(2.99924 0.000150006 0)
(2.99814 0.000368405 0)
(2.99534 0.000917153 0)
(2.98854 0.00225235 0)
(2.97105 0.00562712 0)
(2.92503 0.0143355 0)
(2.79595 0.0381022 0)
(2.41709 0.107345 0)
(1.43613 0.322403 0)
(0.748864 0.53737 0)
(0.742616 0.575071 0)
(0.767819 0.5782 0)
(0.756808 0.608207 0)
(0.721166 0.659417 0)
(0.693005 0.732577 0)
(0.692493 0.835716 0)
(0.752735 0.979731 0)
(0.912781 1.17431 0)
(3 5.39342e-08 0)
(3 3.36588e-07 0)
(2.99999 1.16494e-06 0)
(2.99998 3.29133e-06 0)
(2.99996 8.68698e-06 0)
(2.9999 2.18368e-05 0)
(2.99974 5.49138e-05 0)
(2.99937 0.000134581 0)
(2.99842 0.000336353 0)
(2.99613 0.000821083 0)
(2.99031 0.00205024 0)
(2.9758 0.00506779 0)
(2.93757 0.0128883 0)
(2.83139 0.0339742 0)
(2.52116 0.0947548 0)
(1.65392 0.278361 0)
(0.869719 0.595975 0)
(0.759549 0.622286 0)
(0.78704 0.628992 0)
(0.800551 0.651245 0)
(0.789084 0.700595 0)
(0.785681 0.77093 0)
(0.812804 0.865256 0)
(0.898229 0.983455 0)
(1.07681 1.10369 0)
(3 4.89181e-08 0)
(3 3.14153e-07 0)
(2.99999 1.06806e-06 0)
(2.99999 3.07778e-06 0)
(2.99997 7.95366e-06 0)
(2.99991 2.05138e-05 0)
(2.99979 5.03732e-05 0)
(2.99947 0.000127244 0)
(2.99871 0.000309685 0)
(2.99677 0.000777709 0)
(2.99207 0.00190668 0)
(2.98007 0.00477612 0)
(2.9491 0.0120541 0)
(2.86389 0.0316213 0)
(2.61641 0.0877699 0)
(1.89425 0.255498 0)
(1.02924 0.633814 0)
(0.783497 0.653741 0)
(0.807649 0.66396 0)
(0.837915 0.681162 0)
(0.850151 0.728089 0)
(0.866602 0.793844 0)
(0.911879 0.874032 0)
(1.00531 0.964215 0)
(1.17282 1.03954 0)
(3 4.57136e-08 0)
(3 2.81411e-07 0)
(3 9.85764e-07 0)
(2.99999 2.75952e-06 0)
(2.99997 7.34627e-06 0)
(2.99993 1.8395e-05 0)
(2.99983 4.69364e-05 0)
(2.99958 0.000114458 0)
(2.99896 0.000291092 0)
(2.99746 0.000705831 0)
(2.99364 0.00179485 0)
(2.98426 0.00441306 0)
(2.95993 0.0112643 0)
(2.89442 0.0293159 0)
(2.70656 0.0809557 0)
(2.14664 0.235726 0)
(1.22961 0.64678 0)
(0.840456 0.685784 0)
(0.846824 0.697984 0)
(0.881262 0.707662 0)
(0.909858 0.746065 0)
(0.938153 0.804264 0)
(0.991743 0.870944 0)
(1.08507 0.938977 0)
(1.23487 0.989924 0)
(3 3.72186e-08 0)
(3 2.40011e-07 0)
(3 8.18865e-07 0)
(2.99999 2.34635e-06 0)
(2.99998 6.10796e-06 0)
(2.99995 1.56765e-05 0)
(2.99987 3.85904e-05 0)
(2.99967 9.7935e-05 0)
(2.99921 0.000237163 0)
(2.99803 0.000603577 0)
(2.99516 0.00145806 0)
(2.98796 0.00371122 0)
(2.96987 0.00915993 0)
(2.92204 0.0238408 0)
(2.78891 0.0641965 0)
(2.39923 0.185284 0)
(1.48976 0.548496 0)
(0.953219 0.699381 0)
(0.910292 0.729312 0)
(0.932159 0.741415 0)
(0.969537 0.765109 0)
(1.00462 0.810979 0)
(1.05911 0.864738 0)
(1.14701 0.916162 0)
(1.27865 0.952336 0)
(3 3.1217e-08 0)
(3 1.90037e-07 0)
(3 6.74199e-07 0)
(2.99999 1.85689e-06 0)
(2.99998 5.00142e-06 0)
(2.99996 1.23629e-05 0)
(2.9999 3.14239e-05 0)
(2.99975 7.64465e-05 0)
(2.99938 0.000190811 0)
(2.99848 0.000466025 0)
(2.99623 0.0011531 0)
(2.99068 0.00283975 0)
(2.97669 0.00703874 0)
(2.94025 0.0177957 0)
(2.83972 0.0466664 0)
(2.54882 0.129782 0)
(1.75081 0.389757 0)
(1.07278 0.719482 0)
(0.959972 0.759352 0)
(0.973441 0.77788 0)
(1.0156 0.788445 0)
(1.06063 0.819548 0)
(1.1158 0.860452 0)
(1.19691 0.899004 0)
(1.31196 0.924885 0)
(3 2.50155e-08 0)
(3 1.62354e-07 0)
(3 5.46425e-07 0)
(2.99999 1.58489e-06 0)
(2.99999 4.07963e-06 0)
(2.99997 1.05023e-05 0)
(2.99992 2.58413e-05 0)
(2.99981 6.48137e-05 0)
(2.99953 0.00015843 0)
(2.99883 0.000394318 0)
(2.99714 0.000968053 0)
(2.99287 0.00240227 0)
(2.98232 0.00596131 0)
(2.95492 0.0150133 0)
(2.88067 0.0391182 0)
(2.66735 0.107508 0)
(2.04124 0.315532 0)
(1.25201 0.750995 0)
(1.00723 0.795428 0)
(1.00912 0.810928 0)
(1.05114 0.812939 0)
(1.106 0.827445 0)
(1.16332 0.856952 0)
(1.23823 0.886134 0)
(1.33892 0.904887 0)
(3 2.08287e-08 0)
(3 1.27941e-07 0)
(3 4.46205e-07 0)
(3 1.25067e-06 0)
(2.99999 3.32131e-06 0)
(2.99998 8.27195e-06 0)
(2.99994 2.11375e-05 0)
(2.99986 5.09306e-05 0)
(2.99965 0.000130374 0)
(2.99915 0.00031028 0)
(2.99791 0.00079857 0)
(2.99484 0.00190278 0)
(2.9872 0.0048827 0)
(2.96783 0.0119811 0)
(2.91649 0.0313559 0)
(2.77288 0.0845695 0)
(2.34728 0.245804 0)
(1.51779 0.679736 0)
(1.10706 0.806348 0)
(1.06647 0.830964 0)
(1.09097 0.836904 0)
(1.14694 0.83893 0)
(1.20756 0.856773 0)
(1.27631 0.877625 0)
(1.36403 0.890942 0)
(3 1.49325e-08 0)
(3 9.99695e-08 0)
(3 3.26966e-07 0)
(3 9.76152e-07 0)
(2.99999 2.43731e-06 0)
(2.99998 6.42999e-06 0)
(2.99996 1.54574e-05 0)
(2.9999 3.93486e-05 0)
(2.99975 9.49668e-05 0)
(2.99938 0.000237568 0)
(2.99847 0.000580967 0)
(2.99627 0.00143384 0)
(2.99072 0.00355999 0)
(2.97696 0.00880351 0)
(2.94102 0.0224394 0)
(2.8429 0.0591651 0)
(2.55982 0.166678 0)
(1.81449 0.498847 0)
(1.23462 0.803307 0)
(1.12578 0.843439 0)
(1.13307 0.860208 0)
(1.18272 0.858063 0)
(1.24567 0.862502 0)
(1.31061 0.874207 0)
(1.38813 0.882288 0)
(3 1.17822e-08 0)
(3 7.43621e-08 0)
(3 2.57576e-07 0)
(3 7.26798e-07 0)
(3 1.91416e-06 0)
(2.99999 4.85074e-06 0)
(2.99997 1.20095e-05 0)
(2.99993 3.00971e-05 0)
(2.99982 7.31005e-05 0)
(2.99956 0.00018392 0)
(2.9989 0.000442973 0)
(2.99732 0.00112132 0)
(2.99334 0.00270678 0)
(2.98354 0.0068438 0)
(2.95828 0.0169961 0)
(2.89046 0.0444583 0)
(2.69786 0.121222 0)
(2.13384 0.359427 0)
(1.41929 0.810932 0)
(1.18392 0.871135 0)
(1.17381 0.885248 0)
(1.21144 0.881566 0)
(1.27503 0.873908 0)
(1.34035 0.875899 0)
(1.41108 0.878809 0)
(3 9.02913e-09 0)
(3 5.49241e-08 0)
(3 1.96138e-07 0)
(3 5.36003e-07 0)
(3 1.45593e-06 0)
(2.99999 3.57603e-06 0)
(2.99998 9.12355e-06 0)
(2.99995 2.22186e-05 0)
(2.99988 5.52421e-05 0)
(2.99969 0.000135963 0)
(2.99925 0.000333191 0)
(2.99816 0.000831253 0)
(2.99549 0.00201683 0)
(2.98886 0.00508698 0)
(2.97229 0.0125084 0)
(2.92903 0.0323508 0)
(2.81092 0.0863528 0)
(2.46428 0.25 0)
(1.71206 0.683498 0)
(1.29724 0.864851 0)
(1.23458 0.894921 0)
(1.24956 0.90198 0)
(1.30367 0.890479 0)
(1.36838 0.883631 0)
(1.43431 0.880936 0)
(3 6.54523e-09 0)
(3 4.01536e-08 0)
(3 1.4101e-07 0)
(3 3.91514e-07 0)
(3 1.04341e-06 0)
(2.99999 2.58925e-06 0)
(2.99999 6.52512e-06 0)
(2.99996 1.5884e-05 0)
(2.99991 3.93733e-05 0)
(2.99979 9.60293e-05 0)
(2.99948 0.000235965 0)
(2.99872 0.000577691 0)
(2.99689 0.00141456 0)
(2.99228 0.00348634 0)
(2.98095 0.00857272 0)
(2.95169 0.0215285 0)
(2.87304 0.0557674 0)
(2.64926 0.153294 0)
(2.031 0.451808 0)
(1.44114 0.844441 0)
(1.29187 0.905417 0)
(1.28784 0.922079 0)
(1.32862 0.912507 0)
(1.39208 0.895778 0)
(1.45555 0.88697 0)
(3 4.58576e-09 0)
(3 2.91119e-08 0)
(3 9.91257e-08 0)
(3 2.83687e-07 0)
(3 7.33329e-07 0)
(3 1.86942e-06 0)
(2.99999 4.60848e-06 0)
(2.99998 1.14209e-05 0)
(2.99994 2.80318e-05 0)
(2.99986 6.8766e-05 0)
(2.99965 0.000169155 0)
(2.99914 0.000413222 0)
(2.99791 0.00102216 0)
(2.99483 0.00249548 0)
(2.9873 0.00619996 0)
(2.96812 0.0153946 0)
(2.91783 0.039494 0)
(2.77822 0.10603 0)
(2.36675 0.308616 0)
(1.68671 0.763413 0)
(1.38032 0.905052 0)
(1.33724 0.932197 0)
(1.35589 0.933189 0)
(1.41172 0.913407 0)
(1.476 0.897032 0)
(3 3.26255e-09 0)
(3 1.98748e-08 0)
(3 6.99399e-08 0)
(3 1.93605e-07 0)
(3 5.1718e-07 0)
(3 1.27604e-06 0)
(2.99999 3.25363e-06 0)
(2.99998 7.79486e-06 0)
(2.99996 1.97714e-05 0)
(2.99991 4.68828e-05 0)
(2.99977 0.00011904 0)
(2.99943 0.000282323 0)
(2.99862 0.000714743 0)
(2.9966 0.00170566 0)
(2.9917 0.00430459 0)
(2.97936 0.0104533 0)
(2.94782 0.0267078 0)
(2.86315 0.0695874 0)
(2.61983 0.195691 0)
(2.00343 0.560056 0)
(1.51649 0.880379 0)
(1.3976 0.934711 0)
(1.39257 0.948844 0)
(1.43188 0.935633 0)
(1.49301 0.909829 0)
(3 2.14773e-09 0)
(3 1.38803e-08 0)
(3 4.67954e-08 0)
(3 1.35289e-07 0)
(3 3.46837e-07 0)
(3 8.90332e-07 0)
(3 2.1742e-06 0)
(2.99999 5.4342e-06 0)
(2.99997 1.31876e-05 0)
(2.99994 3.25931e-05 0)
(2.99985 7.94077e-05 0)
(2.99964 0.000194965 0)
(2.9991 0.000477967 0)
(2.99782 0.00116663 0)
(2.99458 0.00288109 0)
(2.98676 0.00706897 0)
(2.96677 0.0176097 0)
(2.91452 0.0451316 0)
(2.76967 0.121208 0)
(2.34821 0.354576 0)
(1.73633 0.798764 0)
(1.4769 0.928057 0)
(1.43807 0.954848 0)
(1.45396 0.954704 0)
(1.50573 0.929797 0)
(3 1.45396e-09 0)
(3 9.20129e-09 0)
(3 3.16547e-08 0)
(3 8.97069e-08 0)
(3 2.33799e-07 0)
(3 5.9275e-07 0)
(3 1.45789e-06 0)
(2.99999 3.62573e-06 0)
(2.99998 8.78368e-06 0)
(2.99996 2.18553e-05 0)
(2.9999 5.25619e-05 0)
(2.99976 0.000131092 0)
(2.99943 0.000315192 0)
(2.9986 0.000785613 0)
(2.99661 0.00189766 0)
(2.99162 0.00472143 0)
(2.97942 0.0115919 0)
(2.94797 0.0292823 0)
(2.86411 0.0766268 0)
(2.62347 0.215556 0)
(2.04215 0.594829 0)
(1.60649 0.897604 0)
(1.49795 0.953699 0)
(1.48906 0.966983 0)
(1.52141 0.953656 0)
(3 9.61514e-10 0)
(3 6.07506e-09 0)
(3 2.0771e-08 0)
(3 5.91092e-08 0)
(3 1.53675e-07 0)
(3 3.87832e-07 0)
(3 9.61349e-07 0)
(3 2.35923e-06 0)
(2.99999 5.80795e-06 0)
(2.99998 1.41049e-05 0)
(2.99994 3.48336e-05 0)
(2.99985 8.41054e-05 0)
(2.99964 0.000208119 0)
(2.99914 0.000502346 0)
(2.99786 0.00124338 0)
(2.99483 0.00301367 0)
(2.98719 0.00746313 0)
(2.96824 0.0184414 0)
(2.91858 0.0470803 0)
(2.78194 0.126183 0)
(2.38937 0.364681 0)
(1.82353 0.800362 0)
(1.57591 0.939214 0)
(1.53333 0.968224 0)
(1.54322 0.970583 0)
(3 6.32168e-10 0)
(3 3.86554e-09 0)
(3 1.36163e-08 0)
(3 3.75597e-08 0)
(3 1.00495e-07 0)
(3 2.47155e-07 0)
(3 6.25925e-07 0)
(3 1.51147e-06 0)
(2.99999 3.75268e-06 0)
(2.99998 9.09815e-06 0)
(2.99996 2.232e-05 0)
(2.99991 5.45766e-05 0)
(2.99978 0.000132396 0)
(2.99946 0.000326897 0)
(2.99871 0.000787325 0)
(2.9968 0.00195542 0)
(2.99226 0.00472521 0)
(2.98083 0.0117766 0)
(2.95195 0.0293153 0)
(2.8753 0.0764832 0)
(2.65624 0.213287 0)
(2.12716 0.580737 0)
(1.70641 0.901211 0)
(1.59235 0.964809 0)
(1.57793 0.979272 0)
(3 3.87692e-10 0)
(3 2.49417e-09 0)
(3 8.38744e-09 0)
(3 2.4249e-08 0)
(3 6.20136e-08 0)
(3 1.58469e-07 0)
(3 3.88743e-07 0)
(3 9.57718e-07 0)
(3 2.34889e-06 0)
(2.99999 5.69122e-06 0)
(2.99998 1.40884e-05 0)
(2.99995 3.3666e-05 0)
(2.99987 8.42398e-05 0)
(2.99968 0.000199495 0)
(2.99922 0.000501946 0)
(2.99811 0.00118713 0)
(2.99537 0.00298622 0)
(2.98869 0.00714639 0)
(2.97199 0.0179578 0)
(2.92895 0.0450883 0)
(2.81185 0.120366 0)
(2.47554 0.344322 0)
(1.93939 0.771166 0)
(1.67589 0.938041 0)
(1.62369 0.973182 0)
(3 2.36596e-10 0)
(3 1.54305e-09 0)
(3 5.19569e-09 0)
(3 1.4996e-08 0)
(3 3.82626e-08 0)
(3 9.85672e-08 0)
(3 2.36915e-07 0)
(3 5.98862e-07 0)
(3 1.4173e-06 0)
(2.99999 3.57243e-06 0)
(2.99999 8.43032e-06 0)
(2.99997 2.11495e-05 0)
(2.99992 5.01616e-05 0)
(2.99981 0.000124994 0)
(2.99953 0.000298526 0)
(2.99887 0.000738427 0)
(2.99722 0.00178274 0)
(2.99328 0.00438206 0)
(2.98342 0.0107446 0)
(2.95871 0.0267431 0)
(2.8937 0.0689095 0)
(2.71049 0.189315 0)
(2.24707 0.519876 0)
(1.81712 0.882539 0)
(1.68179 0.962697 0)
(3 1.49541e-10 0)
(3 9.28815e-10 0)
(3 3.244e-09 0)
(3 9.01642e-09 0)
(3 2.38554e-08 0)
(3 5.93544e-08 0)
(3 1.4726e-07 0)
(3 3.61563e-07 0)
(3 8.76516e-07 0)
(3 2.16247e-06 0)
(2.99999 5.17339e-06 0)
(2.99998 1.28778e-05 0)
(2.99995 3.05424e-05 0)
(2.99989 7.63316e-05 0)
(2.99973 0.0001808 0)
(2.99935 0.00045161 0)
(2.99841 0.0010732 0)
(2.99615 0.00267223 0)
(2.99059 0.00643475 0)
(2.97697 0.0160044 0)
(2.94226 0.0400598 0)
(2.85003 0.105409 0)
(2.58641 0.298315 0)
(2.0758 0.708383 0)
(1.77747 0.920943 0)
(3 9.18134e-11 0)
(3 5.54079e-10 0)
(3 1.9645e-09 0)
(3 5.37558e-09 0)
(3 1.44061e-08 0)
(3 3.52105e-08 0)
(3 8.92203e-08 0)
(3 2.12663e-07 0)
(3 5.31743e-07 0)
(3 1.26304e-06 0)
(3 3.13342e-06 0)
(2.99999 7.48298e-06 0)
(2.99997 1.83947e-05 0)
(2.99993 4.42741e-05 0)
(2.99984 0.000107725 0)
(2.99962 0.000261837 0)
(2.99907 0.000630868 0)
(2.99775 0.0015459 0)
(2.99452 0.00371166 0)
(2.98662 0.00916141 0)
(2.96683 0.0223351 0)
(2.91563 0.0568669 0)
(2.77475 0.151553 0)
(2.39446 0.419036 0)
(1.94566 0.820167 0)
(3 5.38873e-11 0)
(3 3.34313e-10 0)
(3 1.15392e-09 0)
(3 3.24304e-09 0)
(3 8.48329e-09 0)
(3 2.11347e-08 0)
(3 5.28125e-08 0)
(3 1.26949e-07 0)
(3 3.16371e-07 0)
(3 7.50532e-07 0)
(3 1.87404e-06 0)
(2.99999 4.43044e-06 0)
(2.99998 1.10405e-05 0)
(2.99996 2.62008e-05 0)
(2.99991 6.49021e-05 0)
(2.99978 0.000155061 0)
(2.99948 0.000381206 0)
(2.99872 0.000920043 0)
(2.99693 0.00224259 0)
(2.99246 0.00547996 0)
(2.98167 0.0133897 0)
(2.95422 0.0334824 0)
(2.88247 0.0862583 0)
(2.67875 0.238653 0)
(2.22458 0.612553 0)
(3 3.02017e-11 0)
(3 1.98344e-10 0)
(3 6.57831e-10 0)
(3 1.92265e-09 0)
(3 4.8521e-09 0)
(3 1.24979e-08 0)
(3 3.0147e-08 0)
(3 7.50873e-08 0)
(3 1.80479e-07 0)
(3 4.42225e-07 0)
(3 1.07128e-06 0)
(3 2.59095e-06 0)
(2.99999 6.34091e-06 0)
(2.99998 1.51477e-05 0)
(2.99995 3.74709e-05 0)
(2.99988 8.8644e-05 0)
(2.99971 0.000220568 0)
(2.9993 0.000520199 0)
(2.99831 0.00129599 0)
(2.9959 0.00306975 0)
(2.99009 0.00763843 0)
(2.97566 0.0184589 0)
(2.93916 0.046775 0)
(2.84145 0.122381 0)
(2.56627 0.343311 0)
(3 1.74993e-11 0)
(3 1.11659e-10 0)
(3 3.82309e-10 0)
(3 1.08052e-09 0)
(3 2.80752e-09 0)
(3 7.07083e-09 0)
(3 1.72442e-08 0)
(3 4.27624e-08 0)
(3 1.01917e-07 0)
(3 2.53092e-07 0)
(3 5.98402e-07 0)
(3 1.48619e-06 0)
(3 3.50715e-06 0)
(2.99999 8.68319e-06 0)
(2.99997 2.05707e-05 0)
(2.99993 5.05661e-05 0)
(2.99984 0.000120584 0)
(2.99961 0.000293632 0)
(2.99905 0.000707499 0)
(2.99774 0.00170685 0)
(2.99447 0.00415665 0)
(2.98662 0.0100433 0)
(2.96688 0.024828 0)
(2.91636 0.0625111 0)
(2.77685 0.168443 0)
(3 1.02166e-11 0)
(3 6.21e-11 0)
(3 2.18888e-10 0)
(3 6.01391e-10 0)
(3 1.60341e-09 0)
(3 3.93359e-09 0)
(3 9.87022e-09 0)
(3 2.36971e-08 0)
(3 5.84578e-08 0)
(3 1.40191e-07 0)
(3 3.42353e-07 0)
(3 8.26148e-07 0)
(3 1.99824e-06 0)
(2.99999 4.86068e-06 0)
(2.99999 1.16512e-05 0)
(2.99996 2.85405e-05 0)
(2.99991 6.79734e-05 0)
(2.99979 0.000167333 0)
(2.99949 0.000397291 0)
(2.99878 0.000979977 0)
(2.99703 0.00233382 0)
(2.99284 0.00576173 0)
(2.9825 0.0139115 0)
(2.95674 0.0348112 0)
(2.88967 0.0889815 0)
(3 5.56506e-12 0)
(3 3.5104e-11 0)
(3 1.19734e-10 0)
(3 3.39692e-10 0)
(3 8.77406e-10 0)
(3 2.20809e-09 0)
(3 5.42665e-09 0)
(3 1.32113e-08 0)
(3 3.23237e-08 0)
(3 7.74914e-08 0)
(3 1.90244e-07 0)
(3 4.5317e-07 0)
(3 1.1152e-06 0)
(3 2.64735e-06 0)
(2.99999 6.51385e-06 0)
(2.99998 1.54795e-05 0)
(2.99995 3.79731e-05 0)
(2.99989 9.04349e-05 0)
(2.99973 0.000220825 0)
(2.99936 0.000529053 0)
(2.99845 0.00128415 0)
(2.99626 0.00309952 0)
(2.99101 0.00752678 0)
(2.97808 0.018378 0)
(2.94579 0.0458544 0)
(3 3.01585e-12 0)
(3 1.90901e-11 0)
(3 6.58569e-11 0)
(3 1.84819e-10 0)
(3 4.82075e-10 0)
(3 1.20438e-09 0)
(3 2.95713e-09 0)
(3 7.24817e-09 0)
(3 1.74012e-08 0)
(3 4.27588e-08 0)
(3 1.01484e-07 0)
(3 2.50342e-07 0)
(3 5.90851e-07 0)
(3 1.45941e-06 0)
(3 3.44052e-06 0)
(2.99999 8.47299e-06 0)
(2.99998 2.00201e-05 0)
(2.99994 4.9049e-05 0)
(2.99986 0.000116412 0)
(2.99966 0.000282763 0)
(2.99917 0.00067625 0)
(2.99804 0.00162939 0)
(2.99521 0.00392604 0)
(2.98849 0.0094629 0)
(2.97168 0.023093 0)
(3 1.66257e-12 0)
(3 1.01744e-11 0)
(3 3.57227e-11 0)
(3 9.86266e-11 0)
(3 2.61408e-10 0)
(3 6.41044e-10 0)
(3 1.60696e-09 0)
(3 3.83122e-09 0)
(3 9.47586e-09 0)
(3 2.24826e-08 0)
(3 5.52657e-08 0)
(3 1.31332e-07 0)
(3 3.20787e-07 0)
(3 7.67136e-07 0)
(3 1.85735e-06 0)
(2.99999 4.47615e-06 0)
(2.99999 1.0734e-05 0)
(2.99997 2.61208e-05 0)
(2.99993 6.20085e-05 0)
(2.99982 0.000151966 0)
(2.99957 0.000359001 0)
(2.99897 0.000882769 0)
(2.99753 0.00208468 0)
(2.99401 0.00513881 0)
(2.98551 0.0122782 0)
(3 8.65683e-13 0)
(3 5.6267e-12 0)
(3 1.85809e-11 0)
(3 5.38029e-11 0)
(3 1.36417e-10 0)
(3 3.47437e-10 0)
(3 8.38705e-10 0)
(3 2.06791e-09 0)
(3 4.95887e-09 0)
(3 1.20557e-08 0)
(3 2.90175e-08 0)
(3 6.99061e-08 0)
(3 1.69456e-07 0)
(3 4.04476e-07 0)
(3 9.87417e-07 0)
(3 2.34168e-06 0)
(2.99999 5.74592e-06 0)
(2.99998 1.35668e-05 0)
(2.99996 3.33545e-05 0)
(2.99991 7.87796e-05 0)
(2.99978 0.000193357 0)
(2.99948 0.00045781 0)
(2.99875 0.00112199 0)
(2.99697 0.00267046 0)
(2.99277 0.00653826 0)
(3 4.5599e-13 0)
(3 2.86247e-12 0)
(3 9.90377e-12 0)
(3 2.77275e-11 0)
(3 7.24217e-11 0)
(3 1.80067e-10 0)
(3 4.4246e-10 0)
(3 1.07782e-09 0)
(3 2.5923e-09 0)
(3 6.32379e-09 0)
(3 1.50391e-08 0)
(3 3.68272e-08 0)
(3 8.71594e-08 0)
(3 2.13688e-07 0)
(3 5.05514e-07 0)
(3 1.23689e-06 0)
(3 2.9318e-06 0)
(2.99999 7.14653e-06 0)
(2.99998 1.70116e-05 0)
(2.99995 4.12061e-05 0)
(2.99989 9.86606e-05 0)
(2.99974 0.000237208 0)
(2.99937 0.000572352 0)
(2.99852 0.00136503 0)
(2.99642 0.00331909 0)
(3 2.34188e-13 0)
(3 1.43523e-12 0)
(3 5.13236e-12 0)
(3 1.4303e-11 0)
(3 3.74867e-11 0)
(3 9.26828e-11 0)
(3 2.29892e-10 0)
(3 5.51297e-10 0)
(3 1.35287e-09 0)
(3 3.21194e-09 0)
(3 7.86041e-09 0)
(3 1.86274e-08 0)
(3 4.54373e-08 0)
(3 1.07871e-07 0)
(3 2.61995e-07 0)
(3 6.24425e-07 0)
(3 1.50707e-06 0)
(3 3.60898e-06 0)
(2.99999 8.65309e-06 0)
(2.99998 2.08296e-05 0)
(2.99995 4.95918e-05 0)
(2.99987 0.000119874 0)
(2.99969 0.000283953 0)
(2.99926 0.000688071 0)
(2.99824 0.00162555 0)
(3 9.53383e-14 0)
(3 7.76749e-13 0)
(3 2.56853e-12 0)
(3 7.43032e-12 0)
(3 1.88473e-11 0)
(3 4.78851e-11 0)
(3 1.15616e-10 0)
(3 2.84729e-10 0)
(3 6.7836e-10 0)
(3 1.65356e-09 0)
(3 3.93709e-09 0)
(3 9.53417e-09 0)
(3 2.2778e-08 0)
(3 5.4755e-08 0)
(3 1.31563e-07 0)
(3 3.13917e-07 0)
(3 7.58644e-07 0)
(3 1.79825e-06 0)
(3 4.36263e-06 0)
(2.99999 1.03066e-05 0)
(2.99997 2.5019e-05 0)
(2.99994 5.91049e-05 0)
(2.99985 0.000143064 0)
(2.99964 0.000339226 0)
(2.99913 0.000817966 0)
(3 5.59464e-14 0)
(3 3.92621e-13 0)
(3 1.32578e-12 0)
(3 3.65131e-12 0)
(3 9.6316e-12 0)
(3 2.37291e-11 0)
(3 5.89944e-11 0)
(3 1.41056e-10 0)
(3 3.4475e-10 0)
(3 8.20528e-10 0)
(3 1.98716e-09 0)
(3 4.74217e-09 0)
(3 1.14001e-08 0)
(3 2.73507e-08 0)
(3 6.52982e-08 0)
(3 1.57385e-07 0)
(3 3.73457e-07 0)
(3 9.05528e-07 0)
(3 2.13518e-06 0)
(2.99999 5.1951e-06 0)
(2.99999 1.22283e-05 0)
(2.99997 2.97586e-05 0)
(2.99993 7.00962e-05 0)
(2.99982 0.000170083 0)
(2.99958 0.000402716 0)
(3 3.09595e-14 0)
(3 1.78151e-13 0)
(3 6.19702e-13 0)
(3 1.82227e-12 0)
(3 4.72323e-12 0)
(3 1.19497e-11 0)
(3 2.87349e-11 0)
(3 7.08842e-11 0)
(3 1.6765e-10 0)
(3 4.10618e-10 0)
(3 9.69747e-10 0)
(3 2.35734e-09 0)
(3 5.58704e-09 0)
(3 1.34842e-08 0)
(3 3.21623e-08 0)
(3 7.70013e-08 0)
(3 1.84803e-07 0)
(3 4.39584e-07 0)
(3 1.06214e-06 0)
(3 2.50742e-06 0)
(2.99999 6.09631e-06 0)
(2.99999 1.43297e-05 0)
(2.99996 3.49386e-05 0)
(2.99992 8.19906e-05 0)
(2.9998 0.000199918 0)
(3 2.35913e-14 0)
(3 8.42014e-14 0)
(3 2.68905e-13 0)
(3 8.67724e-13 0)
(3 2.30125e-12 0)
(3 5.73855e-12 0)
(3 1.42488e-11 0)
(3 3.38681e-11 0)
(3 8.2934e-11 0)
(3 1.95847e-10 0)
(3 4.78275e-10 0)
(3 1.12437e-09 0)
(3 2.74659e-09 0)
(3 6.44494e-09 0)
(3 1.57219e-08 0)
(3 3.69875e-08 0)
(3 8.97511e-08 0)
(3 2.12231e-07 0)
(3 5.11809e-07 0)
(3 1.21862e-06 0)
(3 2.91496e-06 0)
(2.99999 6.99066e-06 0)
(2.99998 1.65968e-05 0)
(2.99996 4.01075e-05 0)
(2.99991 9.44511e-05 0)
(3 8.23185e-16 0)
(3 5.4462e-14 0)
(3 1.60385e-13 0)
(3 4.49909e-13 0)
(3 1.07288e-12 0)
(3 2.72446e-12 0)
(3 6.64179e-12 0)
(3 1.60825e-11 0)
(3 3.90426e-11 0)
(3 9.33981e-11 0)
(3 2.24377e-10 0)
(3 5.3822e-10 0)
(3 1.28314e-09 0)
(3 3.09248e-09 0)
(3 7.32544e-09 0)
(3 1.77132e-08 0)
(3 4.18423e-08 0)
(3 1.01304e-07 0)
(3 2.38826e-07 0)
(3 5.78168e-07 0)
(3 1.36529e-06 0)
(3 3.29317e-06 0)
(2.99999 7.79327e-06 0)
(2.99998 1.87461e-05 0)
(2.99996 4.44944e-05 0)
(3 -1.81816e-14 0)
(3 -2.21164e-14 0)
(3 3.11793e-14 0)
(3 8.90368e-14 0)
(3 3.54031e-13 0)
(3 9.97272e-13 0)
(3 2.67372e-12 0)
(3 6.97397e-12 0)
(3 1.66946e-11 0)
(3 4.13683e-11 0)
(3 9.69662e-11 0)
(3 2.37743e-10 0)
(3 5.57443e-10 0)
(3 1.35606e-09 0)
(3 3.19432e-09 0)
(3 7.72842e-09 0)
(3 1.83166e-08 0)
(3 4.3883e-08 0)
(3 1.04901e-07 0)
(3 2.49298e-07 0)
(3 5.99832e-07 0)
(3 1.413e-06 0)
(3 3.42333e-06 0)
(2.99999 8.01534e-06 0)
(2.99998 1.94609e-05 0)
(3 3.3561e-15 0)
(3 -2.37316e-14 0)
(3 -2.20943e-14 0)
(3 -4.68525e-14 0)
(3 4.87703e-15 0)
(3 1.71464e-13 0)
(3 6.45489e-13 0)
(3 1.87629e-12 0)
(3 4.64463e-12 0)
(3 1.14822e-11 0)
(3 2.72204e-11 0)
(3 6.57432e-11 0)
(3 1.55808e-10 0)
(3 3.75259e-10 0)
(3 8.86944e-10 0)
(3 2.14976e-09 0)
(3 5.05019e-09 0)
(3 1.22464e-08 0)
(3 2.87847e-08 0)
(3 6.9731e-08 0)
(3 1.64009e-07 0)
(3 3.94876e-07 0)
(3 9.33828e-07 0)
(2.99999 2.23543e-06 0)
(2.99999 5.30902e-06 0)
(1.29589 1.08813 0)
(1.71108 0.883844 0)
(1.90026 0.618147 0)
(1.93562 0.352726 0)
(1.89521 0.134715 0)
(1.81669 -0.00946989 0)
(1.73383 -0.0475179 0)
(1.69206 -0.0218829 0)
(1.68772 0.0167 0)
(1.6938 0.0404527 0)
(1.70286 0.0437289 0)
(1.71019 0.0344239 0)
(1.71213 0.0239169 0)
(1.71304 0.0149573 0)
(1.71384 0.00997251 0)
(1.71555 0.00924985 0)
(1.71847 0.0102382 0)
(1.722 0.0117212 0)
(1.72702 0.0127249 0)
(1.73369 0.0123497 0)
(1.74097 0.0107507 0)
(1.74829 0.00876878 0)
(1.75588 0.00702482 0)
(1.76398 0.00573773 0)
(1.77269 0.00483221 0)
(1.78201 0.00414183 0)
(1.79188 0.00353635 0)
(1.80225 0.00295986 0)
(1.81305 0.00240731 0)
(1.82423 0.00189285 0)
(1.83573 0.00142962 0)
(1.84753 0.00102263 0)
(1.85959 0.000669587 0)
(1.87186 0.000364588 0)
(1.88432 0.000100903 0)
(1.89692 -0.000127684 0)
(1.90965 -0.00032636 0)
(1.92247 -0.000499862 0)
(1.93536 -0.000653233 0)
(1.94828 -0.000792967 0)
(1.96122 -0.000912118 0)
(1.97419 -0.00101574 0)
(1.98718 -0.00113023 0)
(2.0001 -0.00124863 0)
(2.01297 -0.00133985 0)
(2.02583 -0.00142007 0)
(2.03866 -0.00150131 0)
(2.05143 -0.00159965 0)
(2.06412 -0.00171978 0)
(2.07658 -0.00202936 0)
(2.08856 -0.00251924 0)
(2.09888 -0.00426725 0)
(2.10748 -0.00620621 0)
(2.11476 -0.00920504 0)
(2.11851 -0.0149569 0)
(2.11439 -0.0266987 0)
(2.09427 -0.0510337 0)
(2.0438 -0.101509 0)
(1.94431 -0.184932 0)
(1.80786 -0.259943 0)
(1.67455 -0.276671 0)
(1.57754 -0.223117 0)
(1.53181 -0.128143 0)
(1.53862 -0.0360585 0)
(1.57156 0.013041 0)
(1.60652 0.0265823 0)
(1.64804 0.0136526 0)
(1.68948 -0.0103356 0)
(1.72207 -0.0371464 0)
(1.75042 -0.0550192 0)
(1.7781 -0.0559158 0)
(1.80532 -0.0459363 0)
(1.83279 -0.0295933 0)
(1.86119 -0.0117364 0)
(1.89091 0.00385516 0)
(1.92266 0.0135901 0)
(1.9543 0.0153467 0)
(1.98422 0.0113661 0)
(2.01264 0.00317036 0)
(2.03933 -0.00614715 0)
(2.06431 -0.0142665 0)
(2.08794 -0.0197544 0)
(2.11062 -0.0222258 0)
(2.13273 -0.0216361 0)
(2.15467 -0.0186487 0)
(2.1766 -0.0142682 0)
(2.19875 -0.009491 0)
(2.22094 -0.00527444 0)
(2.24288 -0.00210683 0)
(2.26432 -8.85642e-05 0)
(2.28514 0.00101593 0)
(2.30537 0.00146769 0)
(2.32506 0.00145952 0)
(2.34418 0.00113242 0)
(2.36273 0.000655338 0)
(2.38065 0.000158606 0)
(2.39786 -0.000297773 0)
(2.41359 -0.000482697 0)
(2.42735 -0.00081378 0)
(2.43741 7.76834e-05 0)
(1.38781 0.994742 0)
(1.7051 0.710081 0)
(1.8835 0.397414 0)
(1.97395 0.129387 0)
(2.03061 -0.0617795 0)
(2.06864 -0.163828 0)
(2.08491 -0.174424 0)
(2.08752 -0.135742 0)
(2.08067 -0.0882109 0)
(2.06545 -0.0490262 0)
(2.05202 -0.024455 0)
(2.0495 -0.0168846 0)
(2.05225 -0.0181566 0)
(2.05667 -0.0217419 0)
(2.06218 -0.0244367 0)
(2.0671 -0.0255307 0)
(2.07083 -0.0251019 0)
(2.07387 -0.023124 0)
(2.07694 -0.0207201 0)
(2.08064 -0.0190351 0)
(2.08512 -0.0183623 0)
(2.0902 -0.0182345 0)
(2.0957 -0.0182557 0)
(2.10142 -0.0182214 0)
(2.10727 -0.0180793 0)
(2.11325 -0.0178595 0)
(2.1194 -0.0176016 0)
(2.12577 -0.0173254 0)
(2.13239 -0.0170414 0)
(2.13926 -0.016756 0)
(2.14637 -0.0164742 0)
(2.15372 -0.0161997 0)
(2.16129 -0.015934 0)