/*--------------------------------*- C++ -*----------------------------------*\
  =========                 |
  \\      /  F ield         | OpenFOAM: The Open Source CFD Toolbox
   \\    /   O peration     | Website:  https://openfoam.org
    \\  /    A nd           | Version:  13
     \\/     M anipulation  |
\*---------------------------------------------------------------------------*/
FoamFile
{
    format      ascii;
    class       surfaceScalarField;
    location    "7.5";
    object      phi;
}
// * * * * * * * * * * * * * * * * * * * * * * * * * * * * * * * * * * * * * //

dimensions      [1 0 -1 0 0 0 0];

internalField   nonuniform List<scalar> 
10325
(
0.0840003
7.91961e-10
0.084
4.8615e-09
0.0840012
1.68061e-08
0.0839981
4.78142e-08
0.0840054
1.23538e-07
0.0839877
3.15772e-07
0.084028
7.65794e-07
0.0839387
2.00415e-06
0.0841044
4.76938e-06
0.0838125
1.26507e-05
0.0841247
3.22957e-05
0.0836844
9.37566e-05
0.0835962
0.000302483
0.0822365
0.00118704
0.0761347
0.00592728
0.0698715
0.00629415
0.0637511
0.00613581
0.0573733
0.00637644
0.0506767
0.00669593
0.0435626
0.00711283
0.0359225
0.00764314
0.0277355
0.00818715
0.0190478
0.00869092
0.00983272
0.00921614
0.0098304
0.0840003
2.11293e-09
0.084
9.06531e-09
0.0840012
3.9646e-08
0.0839982
8.94918e-08
0.0840053
2.8677e-07
0.083988
5.83373e-07
0.0840268
1.84345e-06
0.083941
3.55732e-06
0.0840971
1.1236e-05
0.0838222
2.36469e-05
0.0841078
6.99349e-05
0.0836864
0.000188481
0.0835679
0.000621906
0.0821944
0.0023946
0.0760541
0.0118887
0.0697173
0.0126637
0.0636739
0.0121949
0.0573696
0.0126797
0.0507098
0.0133549
0.0435329
0.0142886
0.0358112
0.015368
0.0275472
0.0164515
0.018752
0.0174896
0.00949499
0.0184743
0.0193232
0.0840003
2.40079e-09
0.0840001
1.62382e-08
0.0840007
5.071e-08
0.0839991
1.55953e-07
0.084003
3.7905e-07
0.0839913
9.95145e-07
0.0840182
2.48345e-06
0.0839524
6.05185e-06
0.0840742
1.56659e-05
0.08385
3.81642e-05
0.0840756
0.000102827
0.0837113
0.000288157
0.0835741
0.000932537
0.0822431
0.00356306
0.076266
0.0176769
0.0698942
0.0190724
0.0639063
0.0182001
0.0576832
0.0189018
0.0510901
0.0199469
0.0439291
0.0214491
0.0361956
0.023105
0.0278704
0.0247772
0.0189768
0.0263865
0.00958207
0.0278698
0.0289031
0.0840003
2.7673e-09
0.0840002
2.12898e-08
0.0840003
6.55003e-08
0.0840001
2.08841e-07
0.0840007
4.83187e-07
0.0839959
1.43185e-06
0.0840079
2.91912e-06
0.0839693
9.13911e-06
0.0840394
1.82069e-05
0.0838992
5.56707e-05
0.0840188
0.000129617
0.0837627
0.000389969
0.083578
0.00121967
0.0823716
0.00463491
0.0768083
0.0230366
0.0704141
0.0255097
0.0644937
0.02414
0.0583749
0.0250196
0.0518632
0.0264584
0.0447895
0.0285218
0.0370646
0.0308346
0.0287076
0.0331352
0.0196578
0.0354414
0.00999539
0.0375352
0.0388971
0.0840003
2.88882e-09
0.0840001
2.91855e-08
0.0840011
7.06057e-08
0.0839985
2.84383e-07
0.0840044
5.43218e-07
0.0839904
1.83633e-06
0.0840218
3.58666e-06
0.0839512
1.10356e-05
0.0840773
2.3544e-05
0.0838521
6.62258e-05
0.0840855
0.00016387
0.0837145
0.000472309
0.0836224
0.00149163
0.0825589
0.00554422
0.0778242
0.0275619
0.0713807
0.0320067
0.0654766
0.0300659
0.0594519
0.0310436
0.0530841
0.0328248
0.0461218
0.0354863
0.0384769
0.0384826
0.0300625
0.0415525
0.0208219
0.0446872
0.0106991
0.0476597
0.0495962
0.0840003
5.58348e-09
0.0840004
2.48346e-08
0.0840002
1.13452e-07
0.0840002
2.44369e-07
0.0839993
8.2455e-07
0.0840016
1.69476e-06
0.0839912
5.1133e-06
0.0840124
1.09404e-05
0.0839569
3.07572e-05
0.084028
7.20206e-05
0.0838947
0.000195746
0.0839058
0.000537201
0.0836028
0.00170197
0.0829203
0.00620911
0.0796672
0.0305677
0.0731135
0.0386172
0.0670675
0.0361365
0.0610818
0.03703
0.0548372
0.0390698
0.0480284
0.0422971
0.040466
0.0460526
0.0320305
0.0499903
0.0225284
0.0541953
0.0118141
0.05838
0.0614114
0.0840003
5.29623e-09
0.0840001
3.01093e-08
0.084001
1.10352e-07
0.0839989
2.93605e-07
0.0840036
8.28336e-07
0.0839927
1.93485e-06
0.0840178
5.32582e-06
0.0839617
1.2022e-05
0.084066
3.30941e-05
0.0838812
7.71433e-05
0.0840993
0.00021211
0.0837926
0.000572179
0.083875
0.00179952
0.0834918
0.00644493
0.0828501
0.0309811
0.0761094
0.0454184
0.069624
0.0426508
0.063557
0.0431003
0.0574234
0.0452056
0.0507225
0.0490001
0.0432597
0.0535233
0.0348038
0.058451
0.0250621
0.0639447
0.0135544
0.0698923
0.0749687
0.0840003
3.93062e-09
0.0840002
3.31392e-08
0.0840007
9.09382e-08
0.0839994
3.24788e-07
0.0840026
6.90343e-07
0.083994
2.13978e-06
0.0840158
4.54423e-06
0.0839653
1.30262e-05
0.0840764
2.95205e-05
0.0838747
7.9517e-05
0.0841681
0.000198612
0.083865
0.000555905
0.0842048
0.0016881
0.0845239
0.00594437
0.088244
0.0270459
0.0811335
0.0525685
0.0735601
0.0502493
0.0672658
0.0494032
0.0611085
0.0513699
0.0544709
0.0556424
0.0470805
0.0609234
0.0386301
0.0669065
0.0287278
0.0738562
0.0164334
0.0821935
0.0914057
0.0840003
4.93742e-09
0.0840005
2.37033e-08
0.0839998
1.01206e-07
0.0840016
2.31445e-07
0.0839976
7.36741e-07
0.0840081
1.58063e-06
0.0839859
4.52072e-06
0.0840404
1.01361e-05
0.0839354
2.6889e-05
0.0841445
6.47564e-05
0.0838824
0.000166961
0.0843204
0.000443716
0.0844012
0.0013068
0.0860803
0.00438434
0.0941516
0.0188093
0.0878697
0.0587957
0.078431
0.0596717
0.0723341
0.0555042
0.0656962
0.0580135
0.0592741
0.0620671
0.0520585
0.068147
0.0440421
0.0749293
0.0345508
0.0833547
0.0214214
0.0953312
0.112832
0.0840003
3.26777e-09
0.0840002
2.6767e-08
0.0840007
7.51354e-08
0.0839995
2.60781e-07
0.0840028
5.70938e-07
0.0839948
1.65999e-06
0.0840155
3.70555e-06
0.083971
9.85553e-06
0.0840736
2.33037e-05
0.083893
5.88428e-05
0.0841892
0.000148372
0.0839096
0.000391288
0.0843445
0.00113455
0.084823
0.00372977
0.0881052
0.0154708
0.0869304
0.0598241
0.0824276
0.0640967
0.0761002
0.061846
0.0702026
0.0639129
0.0644066
0.0678626
0.0581619
0.0743975
0.0513245
0.081771
0.0425476
0.0921372
0.0299976
0.10789
0.142835
0.0840003
4.20377e-09
0.0840005
2.06013e-08
0.0839999
8.66988e-08
0.0840013
2.01695e-07
0.0839982
6.29335e-07
0.0840057
1.38607e-06
0.0839895
3.84503e-06
0.0840281
8.83496e-06
0.0839488
2.28862e-05
0.0840975
5.57519e-05
0.0838799
0.000141186
0.0841627
0.000372378
0.0839685
0.00105924
0.0843948
0.00345149
0.0861941
0.013524
0.0857931
0.0600723
0.0829659
0.0669034
0.0782562
0.0665596
0.0740265
0.0681391
0.0694697
0.0724142
0.065177
0.0786916
0.0602059
0.0867458
0.0555818
0.0967667
0.0547936
0.108683
0.113667
0.0839676
0.0840003
3.22958e-09
0.0840002
2.41481e-08
0.0840006
7.24371e-08
0.0839997
2.33928e-07
0.084002
5.51641e-07
0.083996
1.50671e-06
0.0840113
3.58635e-06
0.0839766
9.08753e-06
0.0840561
2.2538e-05
0.0839017
5.48137e-05
0.0841464
0.000141561
0.0838442
0.000363261
0.084149
0.00103348
0.0840849
0.00328753
0.085271
0.0123738
0.0866574
0.0584822
0.0833739
0.070186
0.079701
0.0702364
0.0766499
0.071188
0.073439
0.0756192
0.0704263
0.0817005
0.0678658
0.0893059
0.0668209
0.0978141
0.0704783
0.105035
0.104697
0.0794486
0.0840003
3.4217e-09
0.0840004
2.18076e-08
0.0840001
7.60545e-08
0.0840009
2.14649e-07
0.0839991
5.64781e-07
0.0840034
1.45132e-06
0.0839945
3.49929e-06
0.0840129
9.17909e-06
0.0839757
2.10305e-05
0.0840435
5.74593e-05
0.0839307
0.000133317
0.0840874
0.00036718
0.0839383
0.000991617
0.0841968
0.00314282
0.0850817
0.0113858
0.0897227
0.0536497
0.0862175
0.073706
0.0825988
0.073865
0.0796618
0.0741206
0.0774207
0.0778568
0.075482
0.0836368
0.0747122
0.0900754
0.0763176
0.0962129
0.0807956
0.100559
0.0994249
0.0860723
0.0840003
3.14405e-09
0.0840003
2.09653e-08
0.0840005
6.84094e-08
0.0839999
2.04123e-07
0.0840014
5.10366e-07
0.0839983
1.35381e-06
0.0840055
3.25831e-06
0.0839922
8.37465e-06
0.0840169
2.03942e-05
0.0839775
5.16021e-05
0.0840535
0.00012928
0.0839672
0.000335488
0.0841732
0.000918167
0.0843811
0.00280039
0.08591
0.00986864
0.0963456
0.0429904
0.0917153
0.0783347
0.0868561
0.0787267
0.0836867
0.077296
0.0817081
0.079834
0.0807693
0.0845774
0.0810962
0.0897475
0.0831376
0.0941751
0.0870103
0.0966871
0.0950584
0.0913765
0.0840003
2.70848e-09
0.0840003
1.66434e-08
0.0840004
5.79625e-08
0.0840003
1.62771e-07
0.0840005
4.29691e-07
0.0840005
1.06965e-06
0.0840005
2.73167e-06
0.0840053
6.51293e-06
0.0839952
1.68136e-05
0.0840398
3.93896e-05
0.0839979
0.000103043
0.0841805
0.000250586
0.0843032
0.000680089
0.0852374
0.0019467
0.088572
0.00643907
0.105297
0.0261847
0.0993488
0.0842038
0.0948524
0.0831853
0.0893775
0.0827767
0.0867026
0.08251
0.0858546
0.0854277
0.0863919
0.0892099
0.0883609
0.092208
0.0915905
0.0934621
0.0915074
0.0951398
0.0840003
2.44222e-09
0.0840004
1.3343e-08
0.0840002
5.09967e-08
0.0840007
1.30262e-07
0.0839996
3.76301e-07
0.0840028
8.61614e-07
0.0839961
2.35515e-06
0.0840143
5.31607e-06
0.0839793
1.4203e-05
0.0840672
3.26826e-05
0.0839306
8.53607e-05
0.0842131
0.000206619
0.0840324
0.000550779
0.0847254
0.00153899
0.0859736
0.00495387
0.0929473
0.0192364
0.100824
0.0761248
0.097746
0.0862316
0.0937134
0.086796
0.0911893
0.0850397
0.0903739
0.0862448
0.0908634
0.0887203
0.092534
0.0905379
0.0951726
0.0908262
0.0886999
0.0979832
0.0840003
1.7513e-09
0.0840003
1.28523e-08
0.0840003
4.01061e-08
0.0840004
1.25671e-07
0.0840002
2.96948e-07
0.0840006
8.34259e-07
0.0840009
1.85237e-06
0.0839991
5.1382e-06
0.0840086
1.13214e-05
0.0839883
3.11061e-05
0.0840479
7.03751e-05
0.0839873
0.00018935
0.0841575
0.000469313
0.0842725
0.00132847
0.0851687
0.00411401
0.0892034
0.0150943
0.100047
0.065092
0.0990899
0.0871811
0.0970323
0.0888506
0.0948197
0.0872603
0.0940947
0.086975
0.0945904
0.0882249
0.0959415
0.0891867
0.0979888
0.0887815
0.0865093
0.100181
0.0840003
1.80287e-09
0.0840003
9.82068e-09
0.0840003
3.80071e-08
0.0840004
9.59261e-08
0.0840002
2.81058e-07
0.0840011
6.44066e-07
0.0839986
1.76298e-06
0.0840071
4.0216e-06
0.0839882
1.06714e-05
0.0840422
2.4996e-05
0.0839431
6.48165e-05
0.0841642
0.000158612
0.0839389
0.000413549
0.0844442
0.00111736
0.0849009
0.00338472
0.088262
0.011822
0.104619
0.0484965
0.103102
0.088673
0.101142
0.0908001
0.0984344
0.0899823
0.0975391
0.0878827
0.0978735
0.0878979
0.0989232
0.0881367
0.100421
0.0872836
0.0848927
0.102043
0.0840003
1.22321e-09
0.0840003
8.44142e-09
0.0840004
2.68788e-08
0.0840002
8.24053e-08
0.0840008
2.00831e-07
0.0839996
5.34742e-07
0.0840033
1.28251e-06
0.0839969
3.217e-06
0.0840167
7.93842e-06
0.0839852
1.90865e-05
0.0840776
4.87374e-05
0.0839808
0.000115444
0.0843023
0.000300841
0.0843742
0.000771158
0.0857704
0.0022205
0.0902688
0.00716117
0.110915
0.0277803
0.110049
0.089445
0.107487
0.0933515
0.104125
0.0933433
0.10175
0.0902761
0.101219
0.0884317
0.101757
0.0876059
0.102727
0.0863082
0.083821
0.103801
0.0840003
1.05639e-09
0.0840003
6.22226e-09
0.0840003
2.27723e-08
0.0840005
6.09686e-08
0.0840001
1.67252e-07
0.0840012
4.09595e-07
0.0839994
1.02649e-06
0.0840046
2.54933e-06
0.0839971
6.11065e-06
0.0840177
1.56209e-05
0.0839968
3.62925e-05
0.0840715
9.54301e-05
0.0840539
0.000225696
0.0843394
0.000603655
0.0847746
0.00163875
0.0868306
0.00517168
0.0952454
0.0192657
0.110234
0.0742662
0.109859
0.0937082
0.107787
0.0954015
0.105348
0.0927173
0.104376
0.0894092
0.104415
0.0875708
0.104922
0.0858046
0.083219
0.105523
0.0840003
8.12578e-10
0.0840003
5.21343e-09
0.0840004
1.74659e-08
0.0840003
5.07882e-08
0.0840006
1.3036e-07
0.084
3.31303e-07
0.0840018
8.33034e-07
0.083999
2.00449e-06
0.0840069
5.13679e-06
0.0839962
1.20376e-05
0.084026
3.14983e-05
0.0839999
7.34773e-05
0.0841079
0.000194215
0.084108
0.000479045
0.084554
0.0013287
0.0856167
0.00397061
0.0908703
0.0140152
0.110772
0.0541299
0.112193
0.0922711
0.111399
0.096185
0.109114
0.0950059
0.107469
0.0910639
0.106964
0.0880845
0.107048
0.0857243
0.0829831
0.107286
0.0840003
5.70653e-10
0.0840003
3.90724e-09
0.0840003
1.28238e-08
0.0840004
3.81205e-08
0.0840003
9.49729e-08
0.0840006
2.52268e-07
0.0840004
5.86425e-07
0.0840013
1.55277e-06
0.0840028
3.50476e-06
0.0840023
9.34931e-06
0.0840227
2.10456e-05
0.0840092
5.58795e-05
0.0841354
0.00012913
0.0841728
0.000339921
0.0847477
0.000861327
0.0861209
0.00247402
0.092264
0.00792387
0.116742
0.0295068
0.118106
0.0908071
0.116837
0.097439
0.113805
0.0980306
0.111103
0.093776
0.109774
0.0894199
0.109304
0.0861981
0.083151
0.109137
0.0840003
4.82279e-10
0.0840003
2.74566e-09
0.0840003
1.02707e-08
0.0840003
2.6766e-08
0.0840003
7.55991e-08
0.0840005
1.76606e-07
0.0840003
4.70033e-07
0.0840018
1.07839e-06
0.0839989
2.8093e-06
0.0840115
6.51638e-06
0.0839906
1.66508e-05
0.0840681
3.95231e-05
0.0839669
9.93961e-05
0.0842874
0.000244596
0.0842037
0.000629386
0.0852689
0.00171916
0.0875872
0.00531294
0.097734
0.0194243
0.117273
0.0710052
0.118539
0.0961473
0.11743
0.0991219
0.11424
0.0969713
0.112675
0.0909885
0.111698
0.0871785
0.083704
0.111144
0.0840003
3.43115e-10
0.0840003
2.12591e-09
0.0840003
7.36012e-09
0.0840003
2.07437e-08
0.0840004
5.44048e-08
0.0840002
1.36112e-07
0.084001
3.42113e-07
0.0839997
8.28143e-07
0.084004
2.08175e-06
0.0839978
4.9615e-06
0.0840187
1.25852e-05
0.0839929
2.9849e-05
0.08408
7.63561e-05
0.0840288
0.000184119
0.0843335
0.000477417
0.0845911
0.00125693
0.0863274
0.00371686
0.0929071
0.0127077
0.117296
0.0463738
0.120367
0.0930263
0.120682
0.09882
0.119128
0.0985415
0.115706
0.0944226
0.114234
0.0886546
0.0846572
0.113281
0.0840003
2.30266e-10
0.0840003
1.57974e-09
0.0840003
5.10799e-09
0.0840003
1.54145e-08
0.0840004
3.79359e-08
0.0840003
1.00696e-07
0.0840007
2.37608e-07
0.0840001
6.08247e-07
0.0840031
1.44359e-06
0.0839981
3.59604e-06
0.0840182
8.71384e-06
0.0839893
2.13033e-05
0.0840987
5.25464e-05
0.0839837
0.000127901
0.0844143
0.000323079
0.0844752
0.000825402
0.0862208
0.00230091
0.0914735
0.00720874
0.111958
0.0258585
0.123763
0.0810911
0.123709
0.0988683
0.121865
0.100384
0.118648
0.0976474
0.11705
0.0902615
0.0860224
0.115684
0.0840003
1.68249e-10
0.0840003
1.11028e-09
0.0840003
3.73305e-09
0.0840003
1.08367e-08
0.0840003
2.75622e-08
0.0840005
7.15257e-08
0.0840003
1.70762e-07
0.0840009
4.37835e-07
0.0840005
1.02368e-06
0.0840023
2.64065e-06
0.0840044
6.10181e-06
0.084006
1.58425e-05
0.084033
3.67472e-05
0.0840318
9.51023e-05
0.0841872
0.000227752
0.0843262
0.000592548
0.0851393
0.00156956
0.0875016
0.00472434
0.0968074
0.0165494
0.121325
0.0563074
0.124614
0.0955202
0.125341
0.0996523
0.124101
0.0988874
0.120162
0.0941992
0.0880362
0.118151
0.0840003
1.24637e-10
0.0840003
7.28506e-10
0.0840003
2.67704e-09
0.0840003
7.12252e-09
0.0840003
1.96478e-08
0.0840004
4.7001e-08
0.0840003
1.21262e-07
0.0840008
2.86225e-07
0.0840001
7.19661e-07
0.0840039
1.72159e-06
0.0839986
4.22755e-06
0.0840215
1.02997e-05
0.0839946
2.48938e-05
0.084112
6.17163e-05
0.084028
0.000148646
0.0844989
0.000376713
0.084763
0.000959958
0.0870954
0.00269264
0.0948757
0.00853896
0.121763
0.029352
0.129296
0.087833
0.128682
0.100243
0.126617
0.100938
0.123372
0.097443
0.0903413
0.121064
0.0840003
8.36749e-11
0.0840003
5.14874e-10
0.0840003
1.79252e-09
0.0840003
5.02704e-09
0.0840004
1.3273e-08
0.0840003
3.26515e-08
0.0840005
8.31343e-08
0.0840003
1.96035e-07
0.0840009
5.01159e-07
0.0840009
1.15974e-06
0.0840024
2.99601e-06
0.0840067
6.86454e-06
0.0840062
1.78153e-05
0.084047
4.10379e-05
0.0840368
0.000106018
0.0842545
0.000252225
0.0844147
0.000655139
0.0855122
0.0017341
0.0886132
0.0052509
0.0996256
0.0183496
0.126184
0.0609709
0.129233
0.0971405
0.130659
0.0994909
0.128539
0.0995527
0.0941154
0.124766
0.0840003
5.37613e-11
0.0840003
3.46773e-10
0.0840003
1.18464e-09
0.0840003
3.38731e-09
0.0840003
8.73382e-09
0.0840003
2.22364e-08
0.0840004
5.3884e-08
0.0840003
1.34905e-07
0.0840009
3.20511e-07
0.0840002
8.01478e-07
0.0840041
1.89738e-06
0.0839988
4.74029e-06
0.0840239
1.12185e-05
0.0839944
2.80501e-05
0.0841288
6.68715e-05
0.0840226
0.000167602
0.0845664
0.000411567
0.0848153
0.00107327
0.0874157
0.00299527
0.0958379
0.00961422
0.124026
0.0325141
0.132753
0.0883073
0.132481
0.0997488
0.131352
0.100673
0.097526
0.127946
0.0840003
3.47271e-11
0.0840003
2.40079e-10
0.0840003
7.70525e-10
0.0840003
2.33827e-09
0.0840003
5.69231e-09
0.0840003
1.52056e-08
0.0840004
3.55185e-08
0.0840003
9.10227e-08
0.0840007
2.14365e-07
0.0840002
5.35218e-07
0.0840027
1.28376e-06
0.0840001
3.12943e-06
0.0840134
7.68341e-06
0.0840016
1.8362e-05
0.084064
4.59841e-05
0.0840424
0.000109113
0.0843007
0.000278081
0.0844887
0.000686537
0.0858176
0.00186749
0.0896472
0.00556532
0.102889
0.0192607
0.129525
0.061389
0.132952
0.0962883
0.13448
0.0991376
0.0992767
0.132725
0.0840003
2.40071e-11
0.0840003
1.49375e-10
0.0840003
5.23515e-10
0.0840003
1.4552e-09
0.0840003
3.86384e-09
0.0840003
9.48376e-09
0.0840003
2.39189e-08
0.0840004
5.73499e-08
0.0840003
1.41989e-07
0.0840009
3.40595e-07
0.0840006
8.35103e-07
0.0840028
2.01699e-06
0.0840041
4.89942e-06
0.0840098
1.19391e-05
0.0840313
2.8809e-05
0.0840474
7.09553e-05
0.0841951
0.000172188
0.0843684
0.000432061
0.0851972
0.0011069
0.0875411
0.00310216
0.0968793
0.0099087
0.125397
0.0325055
0.135537
0.0860475
0.135436
0.0992395
0.0993543
0.13536
0.0840003
1.53829e-11
0.0840003
9.83684e-11
0.0840003
3.39145e-10
0.0840003
9.59799e-10
0.0840003
2.49328e-09
0.0840003
6.30789e-09
0.0840003
1.52772e-08
0.0840004
3.82752e-08
0.0840004
9.03606e-08
0.0840006
2.27774e-07
0.0840008
5.31746e-07
0.0840012
1.34584e-06
0.0840042
3.13683e-06
0.0840026
7.92287e-06
0.0840283
1.86188e-05
0.0840112
4.66578e-05
0.084161
0.00011171
0.0841379
0.000279667
0.0847918
0.000698575
0.085698
0.00187175
0.0903016
0.00555699
0.10363
0.0188942
0.131574
0.0578907
0.136382
0.0943669
0.098457
0.137218
0.0840003
1.02275e-11
0.0840003
6.0523e-11
0.0840003
2.20374e-10
0.0840003
5.91177e-10
0.0840003
1.61474e-09
0.0840003
3.86947e-09
0.0840003
9.91296e-09
0.0840004
2.33302e-08
0.0840003
5.84145e-08
0.0840006
1.38462e-07
0.0840003
3.39836e-07
0.084002
8.18887e-07
0.0840004
1.97493e-06
0.0840099
4.83308e-06
0.0840031
1.14647e-05
0.0840512
2.85119e-05
0.0840316
6.70914e-05
0.0842543
0.000169049
0.0843541
0.00040667
0.0853932
0.00105928
0.0877777
0.00289027
0.0976181
0.00911851
0.126182
0.0289249
0.13853
0.081914
0.0992163
0.137725
0.0840003
6.05536e-12
0.0840003
3.99941e-11
0.0840003
1.32455e-10
0.0840003
3.89354e-10
0.0840003
9.78107e-10
0.0840003
2.51025e-09
0.0840003
6.09893e-09
0.0840003
1.48937e-08
0.0840004
3.65171e-08
0.0840004
8.67199e-08
0.0840005
2.16977e-07
0.0840009
5.03419e-07
0.0840011
1.28019e-06
0.0840048
2.93836e-06
0.0840021
7.51926e-06
0.0840306
1.72617e-05
0.0840094
4.41214e-05
0.0841743
0.000102761
0.0841181
0.000262033
0.084839
0.000639294
0.0856082
0.00171202
0.0900765
0.0049849
0.10194
0.0167054
0.132531
0.0510931
0.0917641
0.139859
0.0840003
3.81115e-12
0.0840003
2.4004e-11
0.0840003
8.36803e-11
0.0840003
2.34368e-10
0.0840003
6.1384e-10
0.0840003
1.53408e-09
0.0840003
3.7372e-09
0.0840003
9.24385e-09
0.0840003
2.19088e-08
0.0840004
5.45535e-08
0.0840004
1.27465e-07
0.0840006
3.19641e-07
0.0840013
7.4148e-07
0.0840015
1.86355e-06
0.0840074
4.33297e-06
0.0840046
1.08151e-05
0.0840465
2.54105e-05
0.0840287
6.29527e-05
0.0842577
0.000150777
0.0843044
0.000374983
0.0853456
0.000944827
0.0874267
0.00257841
0.096342
0.00791995
0.121884
0.0253185
0.0731722
0.140213
0.0840003
2.43348e-12
0.0840003
1.4176e-11
0.0840003
5.19783e-11
0.0840003
1.38272e-10
0.0840003
3.79329e-10
0.0840003
8.9947e-10
0.0840003
2.32592e-09
0.0840003
5.36362e-09
0.0840003
1.36572e-08
0.0840004
3.14726e-08
0.0840003
7.9118e-08
0.0840007
1.84709e-07
0.0840004
4.55739e-07
0.0840027
1.08317e-06
0.0840009
2.62041e-06
0.0840131
6.3705e-06
0.0840067
1.50537e-05
0.084063
3.74809e-05
0.0840646
8.74817e-05
0.084309
0.000221898
0.0845614
0.000533858
0.0858698
0.0014188
0.0895367
0.00403366
0.101451
0.0133273
0.0406769
0.133407
0.0840003
1.27642e-12
0.0840003
8.67185e-12
0.0840003
2.84215e-11
0.0840003
8.43886e-11
0.0840003
2.08099e-10
0.0840003
5.43927e-10
0.0840003
1.26517e-09
0.0840003
3.22657e-09
0.0840003
7.39805e-09
0.0840003
1.86692e-08
0.0840004
4.2867e-08
0.0840004
1.06993e-07
0.0840009
2.48727e-07
0.0840006
6.09654e-07
0.0840031
1.44233e-06
0.0840037
3.46059e-06
0.0840117
8.37462e-06
0.0840282
1.96659e-05
0.0840556
4.85285e-05
0.0841803
0.000113566
0.0843755
0.00028516
0.0851059
0.000701868
0.0871206
0.0019113
0.094517
0.00583966
0.019265
0.115448
0.0840003
7.6277e-13
0.0840003
4.51162e-12
0.0840003
1.62948e-11
0.0840003
4.36894e-11
0.0840003
1.18275e-10
0.0840003
2.78231e-10
0.0840003
7.14807e-10
0.0840003
1.61494e-09
0.0840003
4.11535e-09
0.0840003
9.17956e-09
0.0840003
2.32201e-08
0.0840005
5.1961e-08
0.0840004
1.29525e-07
0.0840012
2.9354e-07
0.0840003
7.13273e-07
0.084006
1.65679e-06
0.0840002
3.89644e-06
0.0840334
9.27881e-06
0.0840055
2.12314e-05
0.0841703
5.16829e-05
0.0841247
0.000118052
0.0847822
0.000293616
0.0855305
0.000735251
0.0893887
0.00209599
0.00689952
0.101182
0.0840003
3.70607e-13
0.0840003
2.4151e-12
0.0840003
8.08973e-12
0.0840003
2.3377e-11
0.0840003
5.84884e-11
0.0840003
1.47209e-10
0.0840003
3.51443e-10
0.0840003
8.3402e-10
0.0840003
2.00372e-09
0.0840003
4.58745e-09
0.0840004
1.12223e-08
0.0840003
2.49399e-08
0.0840005
6.17984e-08
0.0840003
1.34464e-07
0.0840011
3.37712e-07
0.0840012
7.18947e-07
0.0840026
1.8199e-06
0.084009
3.82191e-06
0.0840059
9.66435e-06
0.0840578
2.04793e-05
0.0840503
5.03492e-05
0.0842767
0.000112839
0.0845488
0.000281329
0.0858107
0.000731056
0.00218201
0.0899824
0.0840003
1.78547e-13
0.0840003
1.18573e-12
0.0840003
4.02247e-12
0.0840003
1.15425e-11
0.0840003
2.88776e-11
0.0840003
7.32912e-11
0.0840003
1.65322e-10
0.0840003
4.31871e-10
0.0840003
8.94392e-10
0.0840003
2.44725e-09
0.0840004
4.80064e-09
0.0840003
1.35483e-08
0.0840005
2.55125e-08
0.084
7.4263e-08
0.0840014
1.35746e-07
0.0839987
3.96061e-07
0.0840059
7.27394e-07
0.083992
2.0681e-06
0.0840255
3.90226e-06
0.0839649
1.05583e-05
0.0840904
2.18211e-05
0.0839289
5.35749e-05
0.0842233
0.00012557
0.0842562
0.000322795
0.000914416
0.0849339
0.0840003
1.03293e-13
0.0840003
6.16929e-13
0.0840003
2.11616e-12
0.0840003
5.88921e-12
0.0840003
1.52148e-11
0.0840003
3.56944e-11
0.0840003
9.35218e-11
0.0840003
1.90613e-10
0.0840003
5.48115e-10
0.0840003
9.97966e-10
0.0840003
3.13567e-09
0.0840003
5.0932e-09
0.0840003
1.79515e-08
0.0840003
2.57213e-08
0.0840002
1.01476e-07
0.0840006
1.33394e-07
0.0839978
5.50466e-07
0.0840049
7.56863e-07
0.0839814
2.8881e-06
0.0840257
4.4242e-06
0.0839274
1.44015e-05
0.0840349
2.71647e-05
0.0838553
7.45607e-05
0.0839198
0.000184693
0.000531508
0.0838091
0.0840003
4.18771e-14
0.0840003
4.19655e-13
0.0840003
1.02298e-12
0.0840003
4.08695e-12
0.0840003
7.02876e-12
0.0840003
2.71328e-11
0.0840003
3.68594e-11
0.0840003
1.66188e-10
0.0840003
1.85477e-10
0.0840003
9.64552e-10
0.0840003
9.19805e-10
0.0840003
5.43683e-09
0.0840005
4.79553e-09
0.0839999
2.95625e-08
0.0840011
2.75546e-08
0.0839981
1.56897e-07
0.0840043
1.84638e-07
0.0839885
8.04705e-07
0.0840188
1.29867e-06
0.0839422
3.90624e-06
0.0840534
8.37094e-06
0.0838139
1.95929e-05
0.0839723
5.11138e-05
0.083584
0.000131071
0.000393333
0.0836943
0.0840003
2.85245e-14
0.0840003
3.04601e-13
0.0840003
6.70257e-13
0.0840003
2.90762e-12
0.0840003
5.19019e-12
0.0840003
1.65625e-11
0.0840003
3.58525e-11
0.0840003
8.86036e-11
0.0840003
2.26549e-10
0.0840003
4.63935e-10
0.0840003
1.40917e-09
0.0840004
2.40849e-09
0.0840002
8.63437e-09
0.0840006
1.30223e-08
0.0839993
5.13322e-08
0.0840023
6.01187e-08
0.0839942
3.16015e-07
0.0840115
2.23954e-07
0.0839666
1.88282e-06
0.0840501
1.15014e-06
0.0838576
9.24622e-06
0.0840742
1.13891e-05
0.0836513
4.22697e-05
0.0836961
0.000100642
0.00030829
0.0836019
0.0840003
6.25973e-14
0.0840003
1.017e-13
0.0840003
1.12657e-12
0.0840003
1.00447e-12
0.0840003
7.90111e-12
0.0840003
8.43298e-12
0.0840003
4.44365e-11
0.0840003
5.96892e-11
0.0840003
2.4296e-10
0.0840003
4.00655e-10
0.0840003
1.25936e-09
0.0840004
2.87524e-09
0.0840002
5.72087e-09
0.0840005
1.95086e-08
0.0839997
2.65524e-08
0.0840006
1.31051e-07
0.0839981
1.00087e-07
0.0839978
8.49992e-07
0.0839928
2.86973e-07
0.0839817
4.75199e-06
0.083958
1.89321e-06
0.0839184
1.95692e-05
0.0837674
2.14214e-05
0.0835634
8.58973e-05
0.000226091
0.083605
0.0840003
4.0315e-14
0.0840003
1.69001e-13
0.0840003
7.85756e-13
0.0840003
1.62874e-12
0.0840003
5.80472e-12
0.0840003
1.03618e-11
0.0840003
3.80639e-11
0.0840003
5.76478e-11
0.0840003
2.3255e-10
0.0840003
3.11671e-10
0.0840003
1.43143e-09
0.0840003
1.53578e-09
0.0840003
8.45429e-09
0.0840003
8.1342e-09
0.0839999
4.66115e-08
0.0840007
4.44969e-08
0.0839959
2.48065e-07
0.0840058
2.53051e-07
0.0839724
1.17025e-06
0.0840288
1.55818e-06
0.0838786
5.0626e-06
0.0840161
8.5195e-06
0.0836777
2.28099e-05
0.0835972
5.01066e-05
0.000146161
0.0835576
0.0840003
2.20561e-14
0.0840003
2.40705e-13
0.0840003
4.4632e-13
0.0840003
2.35063e-12
0.0840003
3.46747e-12
0.0840003
1.38321e-11
0.0840003
2.58391e-11
0.0840003
7.2522e-11
0.0840003
1.77272e-10
0.0840003
3.70801e-10
0.0840003
1.1091e-09
0.0840003
1.78188e-09
0.0840004
6.84688e-09
0.084
7.88581e-09
0.0840008
4.03132e-08
0.0839985
3.56136e-08
0.0840019
2.25644e-07
0.0839918
1.30813e-07
0.0840014
1.27233e-06
0.0839637
3.11552e-07
0.0839848
5.87391e-06
0.0838462
2.61006e-06
0.0838292
1.97511e-05
0.0834364
2.48461e-05
8.24648e-05
0.0836077
0.0840003
2.00313e-14
0.0840003
1.54118e-13
0.0840003
4.53288e-13
0.0840003
1.44909e-12
0.0840003
3.32948e-12
0.0840003
1.01168e-11
0.0840003
1.91073e-11
0.0840003
6.25088e-11
0.0840003
1.16335e-10
0.0840003
3.45295e-10
0.0840003
7.08804e-10
0.0840003
1.9113e-09
0.0840004
4.19801e-09
0.084
9.60845e-09
0.0840008
2.47717e-08
0.0839979
4.45872e-08
0.0840042
1.37175e-07
0.0839848
1.88269e-07
0.0840235
6.78533e-07
0.083919
7.26498e-07
0.0840726
2.93692e-06
0.0837265
3.06335e-06
0.0839314
9.72908e-06
0.0833352
1.18421e-05
3.09232e-05
0.0836557
0.0840003
2.79002e-14
0.0840003
4.97874e-14
0.0840003
5.40211e-13
0.0840003
4.48299e-13
0.0840003
3.97351e-12
0.0840003
2.82953e-12
0.0840003
2.41016e-11
0.0840003
2.04752e-11
0.0840003
1.26319e-10
0.0840003
1.6299e-10
0.0840003
6.01317e-10
0.0840003
1.08734e-09
0.0840003
2.85302e-09
0.084
6.83144e-09
0.0840006
1.32832e-08
0.0839982
3.88667e-08
0.0840031
5.91345e-08
0.0839859
2.20531e-07
0.0840189
1.98194e-07
0.0839222
1.15076e-06
0.0840596
5.21327e-07
0.0837335
4.20745e-06
0.0839019
2.01415e-06
0.0833263
6.8061e-06
1.01574e-06
0.0836517
0.0840003
-1.19139e-14
0.0840003
1.46758e-13
0.0840003
-6.91307e-14
0.0840003
1.44207e-12
0.0840003
-4.51571e-13
0.0840003
9.2216e-12
0.0840003
-3.47848e-12
0.0840003
5.39224e-11
0.0840003
-2.22968e-11
0.0840003
2.87373e-10
0.0840003
-3.56405e-11
0.0840003
1.42001e-09
0.0840004
5.21199e-10
0.0839999
5.56478e-09
0.0840009
7.1759e-09
0.0839979
2.11793e-08
0.0840034
7.13707e-08
0.0839869
9.68689e-09
0.0840141
5.49035e-07
0.0839333
-4.65853e-07
0.0840291
2.59379e-06
0.0837679
-1.93592e-06
0.0838575
5.48742e-06
0.0833367
-5.00336e-06
-2.82058e-06
0.0836264
0.0840003
0.0840003
0.0840003
0.0840003
0.0840003
0.0840003
0.0840003
0.0840003
0.0840003
0.0840003
0.0840003
0.0840003
0.0840003
0.0840003
0.0840001
0.0839993
0.0839999
0.0839914
0.0840027
0.0839486
0.0839966
0.0838146
0.0837886
0.0833803
0.0836274
0.0404957
0.0434745
0.0176289
0.0228643
-0.00449626
0.0221201
-0.0155845
0.0110955
-0.0219451
0.00635807
-0.0258598
0.00390251
-0.027194
0.0013156
-0.0283142
0.00109473
-0.0300026
0.00166137
-0.031658
0.00162763
-0.0329675
0.00128112
-0.0339862
0.000991733
-0.0349743
0.00096227
-0.0358867
0.0008857
-0.0366348
0.000724567
-0.0371309
0.000475974
-0.037452
0.000278302
-0.0378577
0.000350187
-0.038238
0.000319373
-0.0384896
0.000189379
-0.0385892
7.80609e-06
-0.0384798
-0.000228795
-0.0380265
-0.00059562
-0.0371557
-0.00102415
-0.0359037
-0.00141194
-0.0343543
-0.00170192
-0.0325918
-0.00191125
-0.03067
-0.00205527
-0.0286078
-0.00219238
-0.026468
-0.00225721
-0.0242899
-0.00228267
-0.0220888
-0.00230219
-0.0198659
-0.0023137
-0.0176135
-0.00234609
-0.0153487
-0.00235711
-0.0130076
-0.00243167
-0.0106551
-0.00244175
-0.00832072
-0.00242439
-0.00601237
-0.00239689
-0.00370888
-0.00239014
-0.00140419
-0.00238991
0.000961122
-0.00245449
0.00326055
-0.00239116
0.0054327
-0.00226249
0.00752028
-0.0021787
0.00952537
-0.00209626
0.0114574
-0.00202171
0.0133049
-0.00193726
0.0150908
-0.00187499
0.0168504
-0.00184496
0.0185669
-0.00179689
0.0202229
-0.00173526
0.0218097
-0.00166406
0.023333
-0.00159731
0.0247954
-0.00153264
0.0262026
-0.00147182
0.0275544
-0.00141088
0.0288542
-0.00135267
0.0301008
-0.00129428
0.0312985
-0.00123851
0.0324456
-0.00118298
0.0335479
-0.00112983
0.0346039
-0.00107765
0.0356177
-0.00102726
0.0365894
-0.000978509
0.0375195
-0.000931083
0.0384114
-0.000885501
0.0392621
-0.000841312
0.0400767
-0.0007986
0.0408545
-0.000757682
0.0415952
-0.000717884
0.0423044
-0.000679824
0.0429764
-0.000642996
0.0436172
-0.000607329
0.0442242
-0.000573105
0.0447983
-0.000539568
0.0453412
-0.000507376
0.045852
-0.000475733
0.0463318
-0.00044523
0.0467816
-0.000415264
0.0472009
-0.000386366
0.0475908
-0.000358033
0.0479528
-0.000330756
0.0482841
-0.000304152
0.0485916
-0.000278486
0.0488681
-0.000253687
0.0491227
-0.000229539
0.0493493
-0.000206249
0.0495527
-0.000183228
0.0497327
-0.000160905
0.049887
-0.000138466
0.0500207
-0.000116225
0.0501281
-9.34993e-05
0.0502134
-6.981e-05
0.0502714
-4.43341e-05
0.0503029
-1.71398e-05
0.0503037
1.37354e-05
0.0502688
4.89097e-05
0.0501914
9.35209e-05
0.000149497
0.0586456
0.0642777
0.0420668
0.0394354
0.0333516
0.030839
0.0219085
0.0225256
0.0122455
0.0160125
0.00424872
0.0118888
-0.00359176
0.00915192
-0.00987732
0.00736669
-0.0141236
0.00587785
-0.0169958
0.00447074
-0.0189013
0.00314844
-0.0202197
0.00227075
-0.0217037
0.00241564
-0.023128
0.00227295
-0.0243616
0.00192787
-0.0253495
0.00143033
-0.026031
0.000928917
-0.0264543
0.000722955
-0.026773
0.000588818
-0.0269184
0.000285128
-0.0267738
-0.000205489
-0.0262559
-0.000848031
-0.0253042
-0.0016751
-0.0238757
-0.00259238
-0.0221019
-0.00333718
-0.0200949
-0.00384682
-0.0179458
-0.00419634
-0.015712
-0.00441262
-0.0133595
-0.0046689
-0.0110115
-0.00472239
-0.00866238
-0.00474305
-0.00632716
-0.00474227
-0.00397709
-0.00476654
-0.00160699
-0.00481663
0.000829101
-0.00489774
0.00318393
-0.0048912
0.00546846
-0.00483241
0.00771287
-0.00477482
0.0099368
-0.00472694
0.0121077
-0.00467086
0.0142197
-0.00461231
0.0162201
-0.00456488
0.0181795
-0.00446343
0.0201266
-0.00432577
0.022015
-0.00418642
0.0238522