/*--------------------------------*- C++ -*----------------------------------*\
  =========                 |
  \\      /  F ield         | OpenFOAM: The Open Source CFD Toolbox
   \\    /   O peration     | Website:  https://openfoam.org
    \\  /    A nd           | Version:  13
     \\/     M anipulation  |
\*---------------------------------------------------------------------------*/
FoamFile
{
    format      ascii;
    class       volVectorField;
    location    "7.5";
    object      U;
}
// * * * * * * * * * * * * * * * * * * * * * * * * * * * * * * * * * * * * * //

dimensions      [0 1 -1 0 0 0 0];

internalField   nonuniform List<vector> 
5250
(
(3 1.11111e-08 0)
(2.99998 7.16733e-08 0)
(2.99996 2.42286e-07 0)
(2.99989 6.96425e-07 0)
(2.99973 1.7931e-06 0)
(2.99934 4.57583e-06 0)
(2.99837 1.10879e-05 0)
(2.99598 2.90081e-05 0)
(2.99001 6.89832e-05 0)
(2.97503 0.000179976 0)
(2.93567 0.000443714 0)
(2.82641 0.00118368 0)
(2.50654 0.00326277 0)
(1.60586 0.00945494 0)
(0.72593 0.0235943 0)
(0.520229 0.0234302 0)
(0.555697 0.0239429 0)
(0.555485 0.0256687 0)
(0.502616 0.0274878 0)
(0.416094 0.0294288 0)
(0.333769 0.0318001 0)
(0.265206 0.034587 0)
(0.196006 0.0375275 0)
(0.117582 0.040952 0)
(0.0514838 0.0458226 0)
(3 4.24743e-08 0)
(2.99998 2.05944e-07 0)
(2.99996 8.33524e-07 0)
(2.99989 2.0285e-06 0)
(2.99974 6.06155e-06 0)
(2.99935 1.32904e-05 0)
(2.99839 3.84915e-05 0)
(2.99603 8.18847e-05 0)
(2.99014 0.000234182 0)
(2.97534 0.000522387 0)
(2.9365 0.00141815 0)
(2.82874 0.00360921 0)
(2.51335 0.0101616 0)
(1.62204 0.0293077 0)
(0.735541 0.071752 0)
(0.517489 0.0675675 0)
(0.554605 0.0661326 0)
(0.555318 0.0689203 0)
(0.502324 0.0719275 0)
(0.415893 0.0753141 0)
(0.333611 0.0793462 0)
(0.264537 0.0837955 0)
(0.194393 0.0879469 0)
(0.11474 0.0919775 0)
(0.0482417 0.0959568 0)
(3 6.8002e-08 0)
(2.99998 3.7592e-07 0)
(2.99996 1.3506e-06 0)
(2.9999 3.66645e-06 0)
(2.99974 9.89892e-06 0)
(2.99937 2.35835e-05 0)
(2.99842 6.41958e-05 0)
(2.99615 0.000142955 0)
(2.99038 0.000395281 0)
(2.97601 0.000897237 0)
(2.93825 0.00240979 0)
(2.83366 0.00615828 0)
(2.52804 0.017355 0)
(1.65808 0.0501763 0)
(0.758059 0.124286 0)
(0.513829 0.114596 0)
(0.55514 0.110951 0)
(0.558432 0.115923 0)
(0.505765 0.12158 0)
(0.420003 0.128374 0)
(0.338116 0.135894 0)
(0.268653 0.143928 0)
(0.197509 0.151626 0)
(0.116406 0.158651 0)
(0.0479804 0.163844 0)
(3 7.42945e-08 0)
(2.99999 5.6027e-07 0)
(2.99996 1.71825e-06 0)
(2.9999 5.43242e-06 0)
(2.99975 1.27912e-05 0)
(2.9994 3.61068e-05 0)
(2.99849 8.00689e-05 0)
(2.99631 0.000225135 0)
(2.99077 0.000499189 0)
(2.97701 0.0013589 0)
(2.94091 0.00326007 0)
(2.84115 0.0088018 0)
(2.55033 0.024264 0)
(1.71435 0.070512 0)
(0.793193 0.177573 0)
(0.508694 0.161014 0)
(0.557433 0.154772 0)
(0.56528 0.162103 0)
(0.513436 0.170633 0)
(0.42881 0.181217 0)
(0.347448 0.192647 0)
(0.27766 0.20481 0)
(0.205356 0.216826 0)
(0.121908 0.22765 0)
(0.0499088 0.234534 0)
(3 8.22101e-08 0)
(2.99999 7.49885e-07 0)
(2.99996 2.01015e-06 0)
(2.99991 7.33049e-06 0)
(2.99977 1.52357e-05 0)
(2.99943 4.86237e-05 0)
(2.99858 9.64658e-05 0)
(2.99649 0.00029952 0)
(2.99133 0.000614641 0)
(2.97831 0.00177429 0)
(2.94445 0.00412275 0)
(2.8512 0.0112889 0)
(2.57968 0.030931 0)
(1.7914 0.0898508 0)
(0.840926 0.23156 0)
(0.502577 0.207184 0)
(0.562081 0.198016 0)
(0.576221 0.207583 0)
(0.525511 0.218847 0)
(0.442472 0.233226 0)
(0.361736 0.248809 0)
(0.291656 0.265609 0)
(0.217914 0.282696 0)
(0.131096 0.298378 0)
(0.0537614 0.30795 0)
(3 1.26812e-07 0)
(2.99999 8.05401e-07 0)
(2.99997 2.75745e-06 0)
(2.99991 7.90394e-06 0)
(2.99979 2.04752e-05 0)
(2.99946 5.2775e-05 0)
(2.9987 0.000130009 0)
(2.99674 0.000327497 0)
(2.992 0.000804601 0)
(2.97993 0.00202224 0)
(2.94884 0.00508603 0)
(2.86353 0.0133624 0)
(2.61618 0.0370434 0)
(1.88958 0.107238 0)
(0.903282 0.284706 0)
(0.498574 0.253921 0)
(0.571178 0.241497 0)
(0.592771 0.252861 0)
(0.543222 0.266691 0)
(0.462066 0.285188 0)
(0.382042 0.30553 0)
(0.311685 0.327911 0)
(0.236357 0.351551 0)
(0.145123 0.374232 0)
(0.0602736 0.388856 0)
(3 1.61382e-07 0)
(2.99999 8.2498e-07 0)
(2.99997 3.36114e-06 0)
(2.99992 8.09259e-06 0)
(2.9998 2.48507e-05 0)
(2.99952 5.45714e-05 0)
(2.99881 0.000156862 0)
(2.99706 0.000343618 0)
(2.99274 0.000952845 0)
(2.98188 0.00218874 0)
(2.95391 0.00583267 0)
(2.87788 0.0148632 0)
(2.65852 0.0415555 0)
(2.00884 0.120139 0)
(0.983511 0.3311 0)
(0.503701 0.302487 0)
(0.588013 0.287641 0)
(0.617099 0.298961 0)
(0.568703 0.314376 0)
(0.489751 0.337261 0)
(0.41036 0.363077 0)
(0.339803 0.392326 0)
(0.263015 0.424575 0)
(0.166644 0.457811 0)
(0.0711934 0.482461 0)
(3 1.39356e-07 0)
(2.99999 9.4671e-07 0)
(2.99997 3.02555e-06 0)
(2.99993 9.3091e-06 0)
(2.99983 2.28583e-05 0)
(2.99957 6.1489e-05 0)
(2.99894 0.00014872 0)
(2.9974 0.000377861 0)
(2.99354 0.000937936 0)
(2.984 0.00233039 0)
(2.95941 0.00593063 0)
(2.89338 0.0154294 0)
(2.70468 0.0426424 0)
(2.14454 0.123798 0)
(1.0885 0.356403 0)
(0.533527 0.348772 0)
(0.618358 0.338301 0)
(0.651817 0.347206 0)
(0.604788 0.362936 0)
(0.528427 0.389954 0)
(0.449438 0.421821 0)
(0.378786 0.459339 0)
(0.301326 0.502676 0)
(0.200436 0.551767 0)
(0.0904443 0.597143 0)
(3 1.30116e-07 0)
(2.99999 8.4827e-07 0)
(2.99998 2.85537e-06 0)
(2.99994 8.29569e-06 0)
(2.99985 2.12271e-05 0)
(2.99962 5.54238e-05 0)
(2.99907 0.000134718 0)
(2.99771 0.000344337 0)
(2.99437 0.000834474 0)
(2.98603 0.00211661 0)
(2.96486 0.00524856 0)
(2.90849 0.0136423 0)
(2.74991 0.0369521 0)
(2.28353 0.106128 0)
(1.22221 0.315255 0)
(0.59652 0.376912 0)
(0.662737 0.391242 0)
(0.693953 0.395526 0)
(0.650311 0.413506 0)
(0.578124 0.443351 0)
(0.500601 0.482127 0)
(0.431059 0.528474 0)
(0.355812 0.585103 0)
(0.255736 0.659067 0)
(0.126467 0.747794 0)
(3 1.19813e-07 0)
(2.99999 7.44744e-07 0)
(2.99998 2.59547e-06 0)
(2.99995 7.24873e-06 0)
(2.99986 1.92441e-05 0)
(2.99967 4.76543e-05 0)
(2.99918 0.000120693 0)
(2.99798 0.000292454 0)
(2.99501 0.000731359 0)
(2.98768 0.00178408 0)
(2.96901 0.00446779 0)
(2.91983 0.011308 0)
(2.78166 0.0301383 0)
(2.37609 0.0843023 0)
(1.34835 0.250237 0)
(0.64861 0.415787 0)
(0.682973 0.448649 0)
(0.715119 0.446939 0)
(0.688887 0.466315 0)
(0.628821 0.496746 0)
(0.55947 0.54217 0)
(0.495764 0.596899 0)
(0.432104 0.671553 0)
(0.349236 0.787227 0)
(0.195831 0.99334 0)
(3 1.10359e-07 0)
(2.99999 6.98707e-07 0)
(2.99998 2.39076e-06 0)
(2.99995 6.81758e-06 0)
(2.99988 1.7719e-05 0)
(2.99971 4.49058e-05 0)
(2.99928 0.000111309 0)
(2.99822 0.000274877 0)
(2.99561 0.000677521 0)
(2.98915 0.00166956 0)
(2.97279 0.00414486 0)
(2.92984 0.0105102 0)
(2.81015 0.0277482 0)
(2.45963 0.0774262 0)
(1.51188 0.227519 0)
(0.740362 0.468911 0)
(0.69044 0.495157 0)
(0.721734 0.493365 0)
(0.716779 0.512978 0)
(0.674977 0.545381 0)
(0.621348 0.595032 0)
(0.573393 0.658619 0)
(0.54096 0.749452 0)
(0.537634 0.891818 0)
(0.571368 1.13281 0)
(3 1.0964e-07 0)
(2.99999 6.65343e-07 0)
(2.99998 2.35895e-06 0)
(2.99996 6.46888e-06 0)
(2.9999 1.74846e-05 0)
(2.99975 4.28829e-05 0)
(2.99937 0.000109912 0)
(2.99846 0.0002651 0)
(2.99618 0.000669999 0)
(2.99057 0.00161975 0)
(2.97638 0.00408783 0)
(2.93947 0.0102398 0)
(2.83724 0.0270453 0)
(2.54001 0.0751061 0)
(1.69802 0.218753 0)
(0.858853 0.513606 0)
(0.697485 0.525641 0)
(0.729699 0.528047 0)
(0.741901 0.54782 0)
(0.717931 0.585017 0)
(0.683879 0.637253 0)
(0.657965 0.707698 0)
(0.658614 0.80494 0)
(0.71167 0.940726 0)
(0.838926 1.11841 0)
(3 9.9185e-08 0)
(2.99999 6.84419e-07 0)
(2.99999 2.21683e-06 0)
(2.99996 6.68978e-06 0)
(2.99991 1.66788e-05 0)
(2.99978 4.41582e-05 0)
(2.99946 0.000105839 0)
(2.99869 0.000272378 0)
(2.99674 0.000648265 0)
(2.992 0.001661 0)
(2.97997 0.00400482 0)
(2.94897 0.0103223 0)
(2.86415 0.0267116 0)
(2.61875 0.0742825 0)
(1.90399 0.214854 0)
(1.0018 0.552319 0)
(0.712908 0.55475 0)
(0.744463 0.557316 0)
(0.769742 0.574689 0)
(0.761837 0.615464 0)
(0.745472 0.6702 0)
(0.741802 0.741346 0)
(0.766383 0.832932 0)
(0.840792 0.943945 0)
(0.983037 1.05265 0)
(3 9.7362e-08 0)
(3 6.40442e-07 0)
(2.99999 2.16712e-06 0)
(2.99997 6.28506e-06 0)
(2.99993 1.61822e-05 0)
(2.99982 4.21429e-05 0)
(2.99956 0.000101789 0)
(2.99891 0.000263657 0)
(2.99733 0.000622957 0)
(2.99337 0.00162895 0)
(2.9836 0.00389276 0)
(2.9584 0.0101274 0)
(2.89058 0.026043 0)
(2.69712 0.0721891 0)
(2.12403 0.209162 0)
(1.17422 0.578008 0)
(0.754956 0.592002 0)
(0.77568 0.595001 0)
(0.806838 0.602537 0)
(0.811585 0.640253 0)
(0.806976 0.694569 0)
(0.81773 0.761073 0)
(0.856323 0.839427 0)
(0.935234 0.925161 0)
(1.06919 0.995579 0)
(3 8.76045e-08 0)
(3 5.615e-07 0)
(2.99999 1.88526e-06 0)
(2.99998 5.4904e-06 0)
(2.99994 1.40137e-05 0)
(2.99985 3.62566e-05 0)
(2.99965 8.92847e-05 0)
(2.99912 0.000222603 0)
(2.99788 0.000553898 0)
(2.99472 0.00135384 0)
(2.98705 0.00341651 0)
(2.96745 0.0084603 0)
(2.91597 0.0219496 0)
(2.77264 0.0592063 0)
(2.35494 0.170054 0)
(1.40225 0.500408 0)
(0.854699 0.609922 0)
(0.834586 0.632305 0)
(0.855778 0.638742 0)
(0.869464 0.666217 0)
(0.870668 0.713503 0)
(0.887044 0.771787 0)
(0.930732 0.836522 0)
(1.00766 0.90238 0)
(1.12803 0.953189 0)
(3 7.64361e-08 0)
(3 4.44194e-07 0)
(2.99999 1.61095e-06 0)
(2.99998 4.32646e-06 0)
(2.99995 1.18842e-05 0)
(2.99988 2.84603e-05 0)
(2.99971 7.48967e-05 0)
(2.9993 0.00017386 0)
(2.99828 0.000455436 0)
(2.99575 0.00105221 0)
(2.98952 0.00273245 0)
(2.97383 0.00649524 0)
(2.9329 0.0168022 0)
(2.81969 0.0436778 0)
(2.49239 0.121699 0)
(1.62104 0.363187 0)
(0.948249 0.638046 0)
(0.876297 0.671099 0)
(0.89412 0.682755 0)
(0.917669 0.696192 0)
(0.928739 0.731789 0)
(0.949182 0.779596 0)
(0.993553 0.831931 0)
(1.06593 0.882849 0)
(1.17213 0.921455 0)
(3 6.21752e-08 0)
(3 3.88885e-07 0)
(2.99999 1.35128e-06 0)
(2.99998 3.79226e-06 0)
(2.99996 9.9868e-06 0)
(2.99991 2.51024e-05 0)
(2.99977 6.2351e-05 0)
(2.99944 0.000154552 0)
(2.99861 0.00037741 0)
(2.99662 0.000939572 0)
(2.99159 0.00228225 0)
(2.97916 0.00571804 0)
(2.94682 0.014263 0)
(2.85863 0.0373518 0)
(2.60498 0.102627 0)
(1.88082 0.300244 0)
(1.09664 0.67945 0)
(0.905307 0.706202 0)
(0.91857 0.717894 0)
(0.950363 0.721695 0)
(0.976314 0.747404 0)
(1.0027 0.78596 0)
(1.04688 0.828114 0)
(1.11414 0.867783 0)
(1.20755 0.897495 0)
(3 5.28251e-08 0)
(3 3.38122e-07 0)
(3 1.16621e-06 0)
(2.99999 3.30755e-06 0)
(2.99997 8.64259e-06 0)
(2.99993 2.2084e-05 0)
(2.99982 5.40995e-05 0)
(2.99956 0.000136932 0)
(2.99893 0.000329031 0)
(2.99734 0.000837644 0)
(2.9935 0.00201106 0)
(2.98381 0.00512431 0)
(2.95921 0.0126678 0)
(2.89302 0.0332036 0)
(2.70523 0.0905707 0)
(2.15192 0.262767 0)
(1.2937 0.689742 0)
(0.955429 0.736106 0)
(0.950469 0.743303 0)
(0.981495 0.743664 0)
(1.01877 0.758971 0)
(1.05031 0.789814 0)
(1.09339 0.824494 0)
(1.15523 0.85612 0)
(1.2376 0.87932 0)
(3 4.50554e-08 0)
(3 2.71523e-07 0)
(3 9.64227e-07 0)
(2.99999 2.65307e-06 0)
(2.99998 7.15699e-06 0)
(2.99995 1.75441e-05 0)
(2.99987 4.52625e-05 0)
(2.99967 0.000107678 0)
(2.99919 0.000276595 0)
(2.99802 0.000654438 0)
(2.99516 0.00168091 0)
(2.98805 0.00402187 0)
(2.97021 0.010288 0)
(2.92358 0.0259951 0)
(2.79514 0.0702869 0)
(2.42307 0.200303 0)
(1.56558 0.580417 0)
(1.06364 0.740882 0)
(1.00682 0.762385 0)
(1.02303 0.769181 0)
(1.06139 0.774169 0)
(1.09689 0.795441 0)
(1.13733 0.822759 0)
(1.19272 0.847912 0)
(1.26504 0.866071 0)
(3 3.36685e-08 0)
(3 2.16615e-07 0)
(3 7.31725e-07 0)
(2.99999 2.11064e-06 0)
(2.99998 5.41479e-06 0)
(2.99996 1.38767e-05 0)
(2.9999 3.38848e-05 0)
(2.99975 8.45537e-05 0)
(2.99939 0.00020553 0)
(2.99851 0.000506963 0)
(2.99631 0.00123622 0)
(2.99098 0.00304607 0)
(2.97752 0.00748185 0)
(2.94287 0.0188471 0)
(2.84848 0.048953 0)
(2.578 0.1349 0)
(1.84004 0.40109 0)
(1.18346 0.744223 0)
(1.05153 0.781172 0)
(1.05803 0.796175 0)
(1.09521 0.795554 0)
(1.13683 0.805391 0)
(1.17711 0.824626 0)
(1.22723 0.843838 0)
(1.2909 0.857632 0)
(3 2.7666e-08 0)
(3 1.69811e-07 0)
(3 5.97259e-07 0)
(2.99999 1.65747e-06 0)
(2.99999 4.41811e-06 0)
(2.99997 1.09891e-05 0)
(2.99992 2.76165e-05 0)
(2.99981 6.75642e-05 0)
(2.99955 0.000167069 0)
(2.99888 0.000410138 0)
(2.99727 0.00100527 0)
(2.99325 0.00249056 0)
(2.98336 0.00613811 0)
(2.95797 0.0153956 0)
(2.88997 0.0398542 0)
(2.69766 0.108478 0)
(2.13516 0.316433 0)
(1.36623 0.760451 0)
(1.0992 0.81335 0)
(1.09086 0.822083 0)
(1.12164 0.818495 0)
(1.16864 0.817469 0)
(1.21221 0.828926 0)
(1.25894 0.842888 0)
(1.31549 0.852995 0)
(3 2.05504e-08 0)
(3 1.35379e-07 0)
(3 4.48513e-07 0)
(3 1.31906e-06 0)
(2.99999 3.33471e-06 0)
(2.99998 8.65895e-06 0)
(2.99995 2.10184e-05 0)
(2.99987 5.28099e-05 0)
(2.99967 0.000128027 0)
(2.99921 0.000317496 0)
(2.99804 0.000777746 0)
(2.99526 0.00191236 0)
(2.98827 0.00473497 0)
(2.97095 0.0117741 0)
(2.92567 0.0301059 0)
(2.80211 0.0806575 0)
(2.44375 0.230808 0)
(1.64933 0.643714 0)
(1.20498 0.812788 0)
(1.14458 0.835441 0)
(1.15791 0.840081 0)
(1.20089 0.833466 0)
(1.2464 0.836594 0)
(1.29005 0.844919 0)
(1.34011 0.851515 0)
(3 1.55158e-08 0)
(3 9.82437e-08 0)
(3 3.40356e-07 0)
(3 9.53198e-07 0)
(2.99999 2.50997e-06 0)
(2.99998 6.2917e-06 0)
(2.99996 1.55203e-05 0)
(2.9999 3.85466e-05 0)
(2.99977 9.25567e-05 0)
(2.99942 0.000231947 0)
(2.9986 0.000550543 0)
(2.99655 0.00138718 0)
(2.99158 0.00330125 0)
(2.97908 0.00831043 0)
(2.94715 0.0204679 0)
(2.86089 0.0534552 0)
(2.61597 0.146035 0)
(1.94783 0.431065 0)
(1.33396 0.798101 0)
(1.19185 0.847331 0)
(1.19113 0.862735 0)
(1.22706 0.856448 0)
(1.27524 0.849104 0)
(1.31874 0.850142 0)
(1.36429 0.852787 0)
(3 1.22524e-08 0)
(3 7.2204e-08 0)
(3 2.60714e-07 0)
(3 7.02508e-07 0)
(3 1.91926e-06 0)
(2.99999 4.62219e-06 0)
(2.99997 1.19927e-05 0)
(2.99993 2.81706e-05 0)
(2.99983 7.22706e-05 0)
(2.99959 0.000169522 0)
(2.99901 0.00043192 0)
(2.99755 0.0010225 0)
(2.99403 0.00258351 0)
(2.98523 0.00623638 0)
(2.96305 0.015737 0)
(2.90428 0.0401016 0)
(2.74013 0.108357 0)
(2.26162 0.313875 0)
(1.543 0.76291 0)
(1.2569 0.863157 0)
(1.22925 0.88098 0)
(1.24994 0.879743 0)
(1.29601 0.866397 0)
(1.34309 0.859452 0)
(1.38727 0.857155 0)
(3 8.51644e-09 0)
(3 5.49066e-08 0)
(3 1.84081e-07 0)
(3 5.34227e-07 0)
(3 1.36101e-06 0)
(2.99999 3.49625e-06 0)
(2.99998 8.54163e-06 0)
(2.99995 2.12082e-05 0)
(2.99988 5.1946e-05 0)
(2.99972 0.000126328 0)
(2.99931 0.000313708 0)
(2.99834 0.000753819 0)
(2.99592 0.00189127 0)
(2.99004 0.00455139 0)
(2.97532 0.0114741 0)
(2.9375 0.0287232 0)
(2.83533 0.0763027 0)
(2.54137 0.214785 0)
(1.84198 0.604796 0)
(1.37428 0.854965 0)
(1.2823 0.88821 0)
(1.28315 0.898256 0)
(1.3181 0.886478 0)
(1.36489 0.87185 0)
(1.4089 0.864681 0)
(3 5.9082e-09 0)
(3 3.97951e-08 0)
(3 1.30443e-07 0)
(3 3.86646e-07 0)
(3 9.64879e-07 0)
(2.99999 2.53436e-06 0)
(2.99999 6.01037e-06 0)
(2.99997 1.53879e-05 0)
(2.99992 3.62815e-05 0)
(2.99981 9.16884e-05 0)
(2.99953 0.000217577 0)
(2.99887 0.000545055 0)
(2.9972 0.00130635 0)
(2.99321 0.00324582 0)
(2.98318 0.0079189 0)
(2.95793 0.0198146 0)
(2.89077 0.0508627 0)
(2.70266 0.137917 0)
(2.16991 0.403412 0)
(1.54324 0.834936 0)
(1.33658 0.903441 0)
(1.31754 0.914557 0)
(1.33707 0.906927 0)
(1.38157 0.888031 0)
(1.42827 0.875165 0)
(3 4.33535e-09 0)
(3 2.71672e-08 0)
(3 9.45411e-08 0)
(3 2.64019e-07 0)
(3 6.94965e-07 0)
(3 1.74086e-06 0)
(2.99999 4.29663e-06 0)
(2.99998 1.06322e-05 0)
(2.99995 2.5645e-05 0)
(2.99987 6.40692e-05 0)
(2.99969 0.000151857 0)
(2.99925 0.000383808 0)
(2.99817 0.000904331 0)
(2.99554 0.00229277 0)
(2.98911 0.00546119 0)
(2.97311 0.0138063 0)
(2.93195 0.0345197 0)
(2.8211 0.0920071 0)
(2.50043 0.262457 0)
(1.82436 0.686536 0)
(1.43931 0.882739 0)
(1.36907 0.912687 0)
(1.36875 0.91979 0)
(1.40178 0.905431 0)
(1.4471 0.885584 0)
(3 3.08406e-09 0)
(3 1.8334e-08 0)
(3 6.56479e-08 0)
(3 1.78213e-07 0)
(3 4.82035e-07 0)
(3 1.16667e-06 0)
(2.99999 2.99018e-06 0)
(2.99999 7.05567e-06 0)
(2.99997 1.7846e-05 0)
(2.99991 4.20985e-05 0)
(2.9998 0.000105475 0)
(2.99949 0.000250281 0)
(2.99879 0.000621955 0)
(2.99701 0.00149115 0)
(2.99276 0.00367373 0)
(2.9821 0.00894746 0)
(2.95527 0.0222741 0)
(2.88398 0.0570794 0)
(2.68404 0.154888 0)
(2.13853 0.444823 0)
(1.58029 0.849271 0)
(1.4189 0.915805 0)
(1.4016 0.929223 0)
(1.41892 0.922317 0)
(1.46049 0.899865 0)
(3 2.0316e-09 0)
(3 1.27038e-08 0)
(3 4.36905e-08 0)
(3 1.23418e-07 0)
(3 3.22126e-07 0)
(3 8.04214e-07 0)
(3 2.00471e-06 0)
(2.99999 4.84832e-06 0)
(2.99998 1.2023e-05 0)
(2.99995 2.87287e-05 0)
(2.99987 7.16257e-05 0)
(2.99968 0.000169983 0)
(2.99921 0.00042489 0)
(2.99809 0.00101037 0)
(2.99532 0.00252021 0)
(2.98859 0.00607479 0)
(2.97178 0.0151394 0)
(2.92848 0.0381181 0)
(2.81139 0.101046 0)
(2.47257 0.288409 0)
(1.83666 0.721508 0)
(1.50518 0.897955 0)
(1.4458 0.927647 0)
(1.44527 0.933568 0)
(1.47598 0.917959 0)
(3 1.30448e-09 0)
(3 8.64271e-09 0)
(3 2.86483e-08 0)
(3 8.37378e-08 0)
(3 2.10803e-07 0)
(3 5.46731e-07 0)
(3 1.30526e-06 0)
(2.99999 3.29782e-06 0)
(2.99999 7.80366e-06 0)
(2.99996 1.95054e-05 0)
(2.99991 4.63735e-05 0)
(2.99979 0.000114774 0)
(2.99949 0.000275205 0)
(2.99875 0.000675476 0)
(2.99698 0.001637 0)
(2.9926 0.00399431 0)
(2.9819 0.0098203 0)
(2.95468 0.024315 0)
(2.88282 0.0627658 0)
(2.68113 0.170776 0)
(2.14786 0.485016 0)
(1.64013 0.862846 0)
(1.49396 0.929771 0)
(1.47516 0.942233 0)
(1.48976 0.935282 0)
(3 8.68835e-10 0)
(3 5.73681e-09 0)
(3 1.89624e-08 0)
(3 5.55607e-08 0)
(3 1.3958e-07 0)
(3 3.61044e-07 0)
(3 8.67598e-07 0)
(3 2.16903e-06 0)
(2.99999 5.2016e-06 0)
(2.99998 1.28011e-05 0)
(2.99994 3.09294e-05 0)
(2.99987 7.51892e-05 0)
(2.99967 0.00018366 0)
(2.99922 0.000442233 0)
(2.99809 0.00108989 0)
(2.9954 0.00261523 0)
(2.98869 0.0064906 0)
(2.97225 0.0158078 0)
(2.92972 0.0402089 0)
(2.81537 0.105773 0)
(2.4858 0.302542 0)
(1.88905 0.730991 0)
(1.57681 0.909126 0)
(1.51602 0.940105 0)
(1.5128 0.944568 0)
(3 5.81194e-10 0)
(3 3.64126e-09 0)
(3 1.2625e-08 0)
(3 3.52211e-08 0)
(3 9.27301e-08 0)
(3 2.29926e-07 0)
(3 5.71084e-07 0)
(3 1.39179e-06 0)
(2.99999 3.38376e-06 0)
(2.99999 8.27038e-06 0)
(2.99996 1.98933e-05 0)
(2.99992 4.8915e-05 0)
(2.99979 0.000116863 0)
(2.99951 0.00028868 0)
(2.99879 0.000688287 0)
(2.9971 0.00170352 0)
(2.99288 0.00408953 0)
(2.98267 0.0101232 0)
(2.95669 0.0249535 0)
(2.88869 0.064175 0)
(2.69815 0.174546 0)
(2.19991 0.488551 0)
(1.71357 0.86854 0)
(1.56277 0.94017 0)
(1.53971 0.950321 0)
(3 3.78065e-10 0)
(3 2.33582e-09 0)
(3 8.19276e-09 0)
(3 2.26363e-08 0)
(3 5.99662e-08 0)
(3 1.48343e-07 0)
(3 3.6735e-07 0)
(3 8.97674e-07 0)
(3 2.16832e-06 0)
(2.99999 5.33667e-06 0)
(2.99998 1.26961e-05 0)
(2.99995 3.15531e-05 0)
(2.99987 7.44171e-05 0)
(2.9997 0.000185885 0)
(2.99927 0.000437427 0)
(2.99823 0.00109335 0)
(2.9957 0.00258757 0)
(2.9896 0.00645346 0)
(2.97443 0.0155974 0)
(2.93587 0.0396225 0)
(2.83326 0.103513 0)
(2.53867 0.294551 0)
(1.97153 0.711512 0)
(1.64932 0.908213 0)
(1.57876 0.942897 0)
(3 2.40303e-10 0)
(3 1.47291e-09 0)
(3 5.14398e-09 0)
(3 1.426e-08 0)
(3 3.76303e-08 0)
(3 9.25964e-08 0)
(3 2.32141e-07 0)
(3 5.54196e-07 0)
(3 1.37546e-06 0)
(2.99999 3.2619e-06 0)
(2.99999 8.06126e-06 0)
(2.99997 1.91316e-05 0)
(2.99992 4.70786e-05 0)
(2.99981 0.000112276 0)
(2.99955 0.000274064 0)
(2.99889 0.000659503 0)
(2.99735 0.00159841 0)
(2.9935 0.00388213 0)
(2.98422 0.00943992 0)
(2.96075 0.0232754 0)
(2.89982 0.0591345 0)
(2.73104 0.158993 0)
(2.28189 0.442363 0)
(1.79262 0.839628 0)
(1.62011 0.930207 0)
(3 1.45242e-10 0)
(3 9.38055e-10 0)
(3 3.14862e-09 0)
(3 9.07334e-09 0)
(3 2.3109e-08 0)
(3 5.87304e-08 0)
(3 1.42651e-07 0)
(3 3.50384e-07 0)
(3 8.47085e-07 0)
(3 2.05082e-06 0)
(2.99999 4.9952e-06 0)
(2.99998 1.19498e-05 0)
(2.99995 2.93326e-05 0)
(2.99989 6.97342e-05 0)
(2.99972 0.000172072 0)
(2.99934 0.000407549 0)
(2.99838 0.00100883 0)
(2.99613 0.00239728 0)
(2.99054 0.00593875 0)
(2.97699 0.0143442 0)
(2.94244 0.0361647 0)
(2.85142 0.093718 0)
(2.59248 0.262768 0)
(2.05483 0.658612 0)
(1.70454 0.890015 0)
(3 9.15675e-11 0)
(3 5.58443e-10 0)
(3 1.97427e-09 0)
(3 5.39965e-09 0)
(3 1.43995e-08 0)
(3 3.5198e-08 0)
(3 8.77823e-08 0)
(3 2.11116e-07 0)
(3 5.14525e-07 0)
(3 1.24276e-06 0)
(3 2.98648e-06 0)
(2.99999 7.2837e-06 0)
(2.99997 1.72907e-05 0)
(2.99993 4.25274e-05 0)
(2.99983 0.000100296 0)
(2.99959 0.000247668 0)
(2.999 0.000582171 0)
(2.99761 0.00144162 0)
(2.99416 0.00340222 0)
(2.98586 0.00842759 0)
(2.96501 0.0203434 0)
(2.91131 0.0517905 0)
(2.76494 0.137115 0)
(2.36803 0.385077 0)
(1.85569 0.776821 0)
(3 5.44574e-11 0)
(3 3.33635e-10 0)
(3 1.16724e-09 0)
(3 3.22291e-09 0)
(3 8.49007e-09 0)
(3 2.08505e-08 0)
(3 5.18579e-08 0)
(3 1.24044e-07 0)
(3 3.04071e-07 0)
(3 7.23918e-07 0)
(3 1.76159e-06 0)
(2.99999 4.21042e-06 0)
(2.99998 1.01741e-05 0)
(2.99996 2.44289e-05 0)
(2.99989 5.8667e-05 0)
(2.99974 0.000141837 0)
(2.99938 0.000338189 0)
(2.99848 0.000823469 0)
(2.99636 0.00195713 0)
(2.99108 0.00479539 0)
(2.97829 0.0115391 0)
(2.94572 0.0287706 0)
(2.86013 0.0738898 0)
(2.62135 0.205125 0)
(2.08686 0.535075 0)
(3 2.97439e-11 0)
(3 1.914e-10 0)
(3 6.44075e-10 0)
(3 1.83897e-09 0)
(3 4.67698e-09 0)
(3 1.17669e-08 0)
(3 2.8301e-08 0)
(3 6.91772e-08 0)
(3 1.64263e-07 0)
(3 3.97319e-07 0)
(3 9.40538e-07 0)
(2.99999 2.26288e-06 0)
(2.99999 5.36728e-06 0)
(2.99997 1.28229e-05 0)
(2.99993 3.04781e-05 0)
(2.99982 7.23691e-05 0)
(2.99957 0.000172706 0)
(2.99896 0.000407043 0)
(2.99747 0.000974364 0)
(2.99383 0.00229671 0)
(2.98491 0.00551356 0)
(2.9625 0.0132291 0)
(2.90422 0.0328226 0)
(2.74572 0.0859078 0)
(2.32114 0.243736 0)
(3 1.64999e-11 0)
(3 9.9617e-11 0)
(3 3.48781e-10 0)
(3 9.5284e-10 0)
(3 2.50783e-09 0)
(3 6.01711e-09 0)
(3 1.50741e-08 0)
(3 3.44713e-08 0)
(3 8.6153e-08 0)
(3 1.92683e-07 0)
(3 4.82292e-07 0)
(3 1.06925e-06 0)
(2.99999 2.65938e-06 0)
(2.99998 5.90343e-06 0)
(2.99994 1.4463e-05 0)
(2.99986 3.24588e-05 0)
(2.99966 7.76129e-05 0)
(2.99915 0.000176746 0)
(2.99793 0.000411647 0)
(2.99486 0.000953073 0)
(2.98737 0.00216651 0)
(2.9682 0.00506636 0)
(2.91789 0.0117425 0)
(2.77849 0.0283323 0)
(2.38585 0.071807 0)
(3 7.78853e-12 0)
(3 5.12905e-11 0)
(3 1.69863e-10 0)
(3 4.89322e-10 0)
(3 1.21704e-09 0)
(3 3.07246e-09 0)
(3 7.16171e-09 0)
(3 1.75556e-08 0)
(3 3.99556e-08 0)
(3 9.70507e-08 0)
(3 2.19832e-07 0)
(3 5.27759e-07 0)
(2.99999 1.19179e-06 0)
(2.99998 2.84194e-06 0)
(2.99995 6.42192e-06 0)
(2.99988 1.50563e-05 0)
(2.99969 3.43056e-05 0)
(2.99923 7.86622e-05 0)
(2.99812 0.000180635 0)
(2.99529 0.000408614 0)
(2.98832 0.000939311 0)
(2.97041 0.00212007 0)
(2.92292 0.00490528 0)
(2.78977 0.0113719 0)
(2.40264 0.027178 0)
(3 3.89245e-12 0)
(3 2.49764e-11 0)
(3 8.42513e-11 0)
(3 2.367e-10 0)
(3 6.01291e-10 0)
(3 1.47427e-09 0)
(3 3.50752e-09 0)
(3 8.36441e-09 0)
(3 1.94512e-08 0)
(3 4.60525e-08 0)
(3 1.06576e-07 0)
(3 2.49305e-07 0)
(2.99999 5.82029e-07 0)
(2.99998 1.34305e-06 0)
(2.99995 3.16694e-06 0)
(2.99988 7.15167e-06 0)
(2.99971 1.69945e-05 0)
(2.99927 3.81954e-05 0)
(2.99821 8.94342e-05 0)
(2.99549 0.000201478 0)
(2.98879 0.000476289 0)
(2.97147 0.00105934 0)
(2.9254 0.00254585 0)
(2.79547 0.0058995 0)
(2.41412 0.0145241 0)
(3 1.85935e-12 0)
(3 1.43833e-11 0)
(3 4.15963e-11 0)
(3 1.3689e-10 0)
(3 2.92224e-10 0)
(3 8.60784e-10 0)
(3 1.69763e-09 0)
(3 4.85807e-09 0)
(3 9.51451e-09 0)
(3 2.64596e-08 0)
(3 5.26944e-08 0)
(3 1.40967e-07 0)
(2.99999 3.00135e-07 0)
(2.99998 7.32899e-07 0)
(2.99995 1.73296e-06 0)
(2.99989 3.80175e-06 0)
(2.99972 9.99148e-06 0)
(2.9993 2.01001e-05 0)
(2.99825 5.71935e-05 0)
(2.99561 0.000106423 0)
(2.98903 0.000310209 0)
(2.97212 0.000610735 0)
(2.92686 0.00163475 0)
(2.79908 0.00379166 0)
(2.42192 0.00964383 0)
(3 8.57832e-13 0)
(3 1.00585e-11 0)
(3 2.21239e-11 0)
(3 9.69539e-11 0)
(3 1.59983e-10 0)
(3 6.0112e-10 0)
(3 9.48051e-10 0)
(3 3.45395e-09 0)
(3 5.36202e-09 0)
(3 1.922e-08 0)
(3 3.07979e-08 0)
(3 1.02969e-07 0)
(2.99999 1.85295e-07 0)
(2.99998 5.39754e-07 0)
(2.99996 1.1248e-06 0)
(2.99989 2.68629e-06 0)
(2.99972 7.20662e-06 0)
(2.99931 1.22742e-05 0)
(2.99828 4.52205e-05 0)
(2.9957 6.20988e-05 0)
(2.98921 0.000247253 0)
(2.97256 0.000416148 0)
(2.92803 0.00124788 0)
(2.80177 0.00286907 0)
(2.4288 0.00753796 0)
(3 1.27867e-12 0)
(3 5.62077e-12 0)
(3 2.53781e-11 0)
(3 5.40518e-11 0)
(3 1.84617e-10 0)
(3 3.45371e-10 0)
(3 1.13189e-09 0)
(3 2.03331e-09 0)
(3 6.56924e-09 0)
(3 1.19731e-08 0)
(3 3.64143e-08 0)
(3 7.33054e-08 0)
(2.99999 1.91901e-07 0)
(2.99998 4.49541e-07 0)
(2.99996 9.87694e-07 0)
(2.99989 2.6716e-06 0)
(2.99973 5.01481e-06 0)
(2.99933 1.53143e-05 0)
(2.99829 2.54501e-05 0)
(2.99578 8.62045e-05 0)
(2.98933 0.000139268 0)
(2.97294 0.000439583 0)
(2.92891 0.000876328 0)
(2.804 0.00234713 0)
(2.43443 0.00583922 0)
(3 1.3727e-12 0)
(3 4.15465e-12 0)
(3 2.71242e-11 0)
(3 3.97901e-11 0)
(3 1.95014e-10 0)
(3 2.83512e-10 0)
(3 1.16918e-09 0)
(3 1.78532e-09 0)
(3 6.67181e-09 0)
(3 1.08682e-08 0)
(3 3.68511e-08 0)
(3 6.74845e-08 0)
(2.99999 1.88947e-07 0)
(2.99998 4.2541e-07 0)
(2.99996 9.21014e-07 0)
(2.99989 2.66924e-06 0)
(2.99974 4.12983e-06 0)
(2.99933 1.65851e-05 0)
(2.99834 1.61603e-05 0)
(2.99579 9.23733e-05 0)
(2.9895 8.39323e-05 0)
(2.97317 0.000398951 0)
(2.92957 0.000611779 0)
(2.80574 0.00172468 0)
(2.43858 0.00407442 0)
(3 9.50387e-13 0)
(3 6.03449e-12 0)
(3 1.8486e-11 0)
(3 5.91236e-11 0)
(3 1.39425e-10 0)
(3 3.59908e-10 0)
(3 9.62273e-10 0)
(3 1.93761e-09 0)
(3 6.17965e-09 0)
(3 1.01281e-08 0)
(3 3.82942e-08 0)
(3 4.8994e-08 0)
(2.99999 2.30115e-07 0)
(2.99998 2.33613e-07 0)
(2.99996 1.30055e-06 0)
(2.99989 1.12726e-06 0)
(2.99974 6.97534e-06 0)
(2.99934 5.37682e-06 0)
(2.99836 3.5244e-05 0)
(2.99584 2.6508e-05 0)
(2.98958 0.000156925 0)
(2.97338 0.000156718 0)
(2.92994 0.00058978 0)
(2.80671 0.00093636 0)
(2.44108 0.00249771 0)
(3 6.5693e-13 0)
(3 5.85846e-12 0)
(3 1.36476e-11 0)
(3 5.67229e-11 0)
(3 1.0281e-10 0)
(3 3.57674e-10 0)
(3 6.77959e-10 0)
(3 2.0275e-09 0)
(3 4.43288e-09 0)
(3 1.07784e-08 0)
(3 2.74133e-08 0)
(3 5.56316e-08 0)
(2.99999 1.66822e-07 0)
(2.99998 2.59129e-07 0)
(2.99996 9.83179e-07 0)
(2.9999 1.12636e-06 0)
(2.99974 5.48941e-06 0)
(2.99935 4.15105e-06 0)
(2.99836 2.93894e-05 0)
(2.99589 1.22381e-05 0)
(2.98961 0.000129621 0)
(2.97353 7.7271e-05 0)
(2.93013 0.000403804 0)
(2.8071 0.00045376 0)
(2.44229 0.00121801 0)
(3 6.52857e-13 0)
(3 2.99924e-12 0)
(3 1.44329e-11 0)
(3 2.79597e-11 0)
(3 1.06551e-10 0)
(3 1.96811e-10 0)
(3 6.18543e-10 0)
(3 1.28541e-09 0)
(3 3.37351e-09 0)
(3 7.84937e-09 0)
(3 1.75771e-08 0)
(3 4.69483e-08 0)
(2.99999 9.03437e-08 0)
(2.99998 2.60977e-07 0)
(2.99996 4.63423e-07 0)
(2.9999 1.375e-06 0)
(2.99974 2.05884e-06 0)
(2.99936 7.04746e-06 0)
(2.99836 7.37401e-06 0)
(2.99592 3.28355e-05 0)
(2.98963 2.78961e-05 0)
(2.9736 0.000116969 0)
(2.9302 0.000112305 0)
(2.80712 0.000222024 0)
(2.44244 0.000261707 0)
(3 1.4798e-13 0)
(3 2.86578e-12 0)
(3 5.51158e-12 0)
(3 2.7766e-11 0)
(3 4.29364e-11 0)
(3 1.77147e-10 0)
(3 2.65493e-10 0)
(3 1.07097e-09 0)
(3 1.48409e-09 0)
(3 6.31097e-09 0)
(3 7.87564e-09 0)
(3 3.37542e-08 0)
(2.99999 4.59219e-08 0)
(2.99998 1.6111e-07 0)
(2.99996 2.66414e-07 0)
(2.9999 7.136e-07 0)
(2.99974 1.50725e-06 0)
(2.99935 2.60931e-06 0)
(2.99838 8.20751e-06 0)
(2.99591 7.24506e-06 0)
(2.98968 3.35069e-05 0)
(2.97359 1.95496e-05 0)
(2.93018 7.04148e-05 0)
(2.80703 -2.48684e-05 0)
(2.44198 -0.000118498 0)
(3 -2.00519e-13 0)
(3 2.21971e-12 0)
(3 -1.97563e-12 0)
(3 2.17572e-11 0)
(3 -1.30999e-11 0)
(3 1.32731e-10 0)
(3 -6.35385e-11 0)
(3 7.25188e-10 0)
(3 -1.42451e-10 0)
(3 3.62898e-09 0)
(3 9.29839e-10 0)
(3 1.54191e-08 0)
(2.99999 1.89086e-08 0)
(2.99998 4.62911e-08 0)
(2.99996 1.80824e-07 0)
(2.9999 2.67669e-08 0)
(2.99974 1.63415e-06 0)
(2.99936 -1.66711e-06 0)
(2.99837 1.1658e-05 0)
(2.99594 -1.60069e-05 0)
(2.98964 5.04993e-05 0)
(2.97362 -5.53465e-05 0)
(2.93016 9.08969e-05 0)
(2.80679 -0.000102304 0)
(2.44183 -6.25217e-05 0)
(1.1413 1.00709 0)
(1.07499 0.719532 0)
(0.252223 0.473449 0)
(-0.434687 0.0434986 0)
(-0.495269 -0.0152743 0)
(-0.671475 -0.0241668 0)
(-0.731551 -0.0186796 0)
(-0.773643 0.00405811 0)
(-0.830907 0.0191563 0)
(-0.896573 0.0200464 0)
(-0.955291 0.0146676 0)
(-1.00629 0.00895917 0)
(-1.05597 0.00680767 0)
(-1.10542 0.00554645 0)
(-1.15167 0.00396207 0)
(-1.19464 0.00212054 0)
(-1.23488 0.00171196 0)
(-1.26345 0.00371339 0)
(-1.2759 0.00355782 0)
(-1.27921 0.00189623 0)
(-1.27316 -0.000353092 0)
(-1.24966 -0.00356368 0)
(-1.20573 -0.00744754 0)
(-1.14481 -0.0117017 0)
(-1.073 -0.0153655 0)
(-0.996228 -0.0179286 0)
(-0.918349 -0.01945 0)
(-0.841497 -0.020113 0)
(-0.76622 -0.0204986 0)
(-0.693746 -0.0203889 0)
(-0.624707 -0.0200184 0)
(-0.558868 -0.0197029 0)
(-0.495953 -0.0197319 0)
(-0.435265 -0.0203817 0)
(-0.376711 -0.021555 0)
(-0.318177 -0.0233261 0)
(-0.261721 -0.0241849 0)
(-0.206969 -0.0243584 0)
(-0.154304 -0.0243451 0)
(-0.103103 -0.0246926 0)
(-0.0532981 -0.0253061 0)
(-0.00493711 -0.027691 0)
(0.0486858 -0.0267748 0)
(0.0942532 -0.0242506 0)
(0.138824 -0.0228582 0)
(0.181265 -0.021718 0)
(0.221901 -0.0207829 0)
(0.259682 -0.019732 0)
(0.296303 -0.0190612 0)
(0.333827 -0.0189632 0)
(0.371173 -0.018599 0)
(0.407027 -0.0179871 0)
(0.441529 -0.0172656 0)
(0.474982 -0.0166274 0)
(0.507511 -0.0160403 0)
(0.53922 -0.0155025 0)
(0.570144 -0.0149648 0)
(0.600339 -0.0144519 0)
(0.629833 -0.0139382 0)
(0.65868 -0.0134482 0)
(0.686906 -0.0129617 0)
(0.714558 -0.0124956 0)
(0.741656 -0.0120379 0)
(0.768238 -0.0115953 0)
(0.794327 -0.0111653 0)
(0.81995 -0.0107468 0)
(0.845134 -0.010342 0)
(0.869896 -0.00994815 0)
(0.89426 -0.00956533 0)
(0.918242 -0.00919447 0)
(0.941857 -0.00883182 0)
(0.965124 -0.00847985 0)
(0.988049 -0.00813615 0)
(1.01065 -0.00779963 0)
(1.03294 -0.00747186 0)
(1.05491 -0.00714834 0)
(1.07659 -0.00683221 0)
(1.09796 -0.00651901 0)
(1.11904 -0.00621137 0)
(1.13982 -0.00590617 0)
(1.1603 -0.00560579 0)
(1.18047 -0.0053082 0)
(1.20034 -0.00501525 0)
(1.2199 -0.00472631 0)
(1.23915 -0.00444141 0)
(1.25808 -0.00416221 0)
(1.2767 -0.00388518 0)
(1.295 -0.00361286 0)
(1.31297 -0.00333899 0)
(1.33059 -0.00306648 0)
(1.34784 -0.00278656 0)
(1.36468 -0.00250097 0)
(1.38105 -0.00220287 0)
(1.39686 -0.00188154 0)
(1.41196 -0.00152171 0)
(1.42614 -0.00112029 0)
(1.43904 -0.000669341 0)
(1.45019 -0.000137998 0)
(1.45862 0.000532812 0)
(1.46462 0.0013792 0)
(1.19395 0.913876 0)
(1.21104 0.625659 0)
(0.866148 0.501249 0)