/*--------------------------------*- C++ -*----------------------------------*\
  =========                 |
  \\      /  F ield         | OpenFOAM: The Open Source CFD Toolbox
   \\    /   O peration     | Website:  https://openfoam.org
    \\  /    A nd           | Version:  13
     \\/     M anipulation  |
\*---------------------------------------------------------------------------*/
FoamFile
{
    format      ascii;
    class       volScalarField;
    location    "9.5";
    object      p;
}
// * * * * * * * * * * * * * * * * * * * * * * * * * * * * * * * * * * * * * //

dimensions      [1 -1 -2 0 0 0 0];

internalField   nonuniform List<scalar> 
5250
(
1.00001
1.00004
1.00011
1.00029
1.00072
1.00181
1.00436
1.01109
1.02661
1.06761
1.16807
1.44146
2.21231
4.51179
10.5095
11.2195
11.0926
11.0829
11.1758
11.4022
11.6185
11.7581
11.8683
11.9552
12.0224
1.00001
1.00004
1.00011
1.00028
1.00073
1.00177
1.00436
1.0109
1.02644
1.0667
1.16647
1.43621
2.19822
4.46853
10.4249
11.2131
11.0871
11.0746
11.1673
11.3932
11.6091
11.7492
11.861
11.9493
12.018
1.00001
1.00004
1.0001
1.00029
1.00068
1.00179
1.00418
1.01076
1.02581
1.06521
1.16275
1.42539
2.16938
4.3755
10.2357
11.1983
11.0712
11.0475
11.1372
11.3585
11.5713
11.7095
11.8206
11.908
11.9764
1.00001
1.00003
1.00011
1.00026
1.00071
1.00161
1.0043
1.00989
1.02579
1.06169
1.15853
1.40828
2.12435
4.23702
9.93871
11.1808
11.0487
11.0017
11.0857
11.2979
11.5052
11.6389
11.7465
11.8313
11.8999
1.00001
1.00003
1.0001
1.00025
1.00067
1.00153
1.0041
1.00932
1.02485
1.05818
1.15152
1.3865
2.06494
4.05346
9.52721
11.166
11.0219
10.9387
11.015
11.2144
11.414
11.5409
11.6427
11.7238
11.7937
1.00001
1.00003
1.0001
1.00024
1.00062
1.00149
1.00369
1.00918
1.02233
1.05613
1.13969
1.36301
1.98726
3.82938
8.98915
11.162
10.9936
10.8579
10.9242
11.1063
11.2947
11.4103
11.5017
11.5749
11.645
1.00001
1.00003
1.00009
1.00022
1.00055
1.0014
1.00333
1.00859
1.02028
1.05209
1.12759
1.33279
1.89752
3.56276
8.31467
11.1723
10.9671
10.7603
10.814
10.9731
11.1446
11.2422
11.3149
11.3709
11.4349
1.00001
1.00003
1.00008
1.00019
1.00052
1.00119
1.0032
1.00724
1.01933
1.04501
1.11704
1.29443
1.79865
3.25682
7.49901
11.2003
10.9432
10.6465
10.6851
10.8144
10.9614
11.0309
11.0712
11.0903
11.1282
1
1.00002
1.00007
1.00019
1.00042
1.00114
1.00259
1.0069
1.01592
1.0414
1.09998
1.25929
1.6867
2.93083
6.57261
11.2201
10.9163
10.5225
10.5401
10.6294
10.7416
10.7691
10.7566
10.7014
10.6499
1
1.00002
1.00006
1.00015
1.0004
1.00091
1.00244
1.0055
1.01463
1.03396
1.08786
1.21756
1.57795
2.59513
5.55744
11.1444
10.8481
10.4019
10.3755
10.4218
10.4805
10.4581
10.364
10.1468
9.8287
1
1.00002
1.00005
1.00014
1.00032
1.00085
1.00198
1.00505
1.01217
1.03024
1.07485
1.18865
1.49307
2.356
4.88313
10.7239
10.6298
10.2985
10.1796
10.1923
10.1844
10.1023
9.85881
9.29568
7.86491
1
1.00002
1.00005
1.00011
1.00029
1.00071
1.00175
1.00437
1.01048
1.02658
1.06442
1.16414
1.42345
2.16323
4.31634
9.80895
10.3294
10.1654
9.98314
9.95147
9.88559
9.71829
9.34056
8.58329
7.13294
1
1.00001
1.00004
1.00009
1.00026
1.00059
1.00156
1.0036
1.00938
1.02213
1.05636
1.13915
1.36163
1.98004
3.78065
8.65225
10.1467
10.0387
9.81233
9.71231
9.59549
9.35499
8.88724
8.13329
7.01201
1
1.00001
1.00003
1.00009
1.0002
1.00054
1.00121
1.00326
1.00737
1.0196
1.04577
1.11845
1.29829
1.80629
3.26381
7.35694
10.0386
9.93578
9.67674
9.48792
9.31768
9.03347
8.56196
7.88121
7.00645
1
1.00001
1.00003
1.00007
1.00018
1.00041
1.00108
1.00245
1.00651
1.01491
1.03912
1.09319
1.24231
1.63436
2.76414
5.96541
9.91555
9.83814
9.57224
9.28627
9.06644
8.76925
8.32549
7.72318
6.99503
1
1.00001
1.00002
1.00006
1.00013
1.00035
1.00079
1.00211
1.00478
1.01262
1.02929
1.07528
1.18502
1.48471
2.31064
4.62974
9.56132
9.67315
9.47821
9.11451
8.85153
8.5537
8.143
7.60794
6.97968
1
1.00001
1.00002
1.00004
1.00011
1.00028
1.00064
1.00168
1.00383
1.01014
1.02333
1.06069
1.1469
1.38487
2.03264
3.89447
8.59082
9.42265
9.28809
8.97415
8.67363
8.37508
7.99673
7.52042
6.97545
1
1
1.00001
1.00003
1.00009
1.00021
1.00053
1.00129
1.00311
1.00788
1.0187
1.04769
1.11613
1.30052
1.79775
3.22353
7.05955
9.16879
9.09916
8.87023
8.5369
8.22995
7.88001
7.45695
6.98034
1
1
1.00001
1.00003
1.00007
1.00016
1.00041
1.00099
1.00241
1.00603
1.0144
1.03649
1.08852
1.22648
1.5904
2.61756
5.44417
8.92413
8.96461
8.80745
8.4619
8.12343
7.79279
7.41912
6.9988
1
1
1.00001
1.00002
1.00005
1.00012
1.00031
1.00074
1.00181
1.00451
1.01073
1.02715
1.06519
1.16532
1.42155
2.1294
4.05639
8.33075
8.86102
8.72843
8.41092
8.05226
7.7376
7.41563
7.04271
1
1
1.00001
1.00001
1.00004
1.00009
1.00024
1.00054
1.00142
1.00322
1.0085
1.01957
1.0505
1.12192
1.31534
1.83304
3.28799
7.02385
8.64621
8.58324
8.36988
8.02224
7.72273
7.42848
7.12358
1
1
1
1.00001
1.00003
1.00007
1.00018
1.0004
1.00105
1.00237
1.00629
1.01432
1.03743
1.08873
1.22912
1.59282
2.61124
5.34461
8.34729
8.4585
8.3322
8.03681
7.7373
7.47259
7.24457
1
1
1
1.00001
1.00002
1.00005
1.00012
1.00029
1.00074
1.00171
1.00448
1.01015
1.02672
1.06204
1.15985
1.40156
2.0668
3.83045
7.68967
8.38444
8.30162
8.07809
7.79396
7.57544
7.43059
1
1
1
1.00001
1.00001
1.00004
1.00009
1.00022
1.00052
1.00126
1.00316
1.00745
1.01899
1.04498
1.1142
1.28522
1.75481
3.03393
6.30783
8.22002
8.25531
8.15708
7.93325
7.7768
7.69511
1
1
1
1
1.00001
1.00003
1.00006
1.00016
1.00035
1.00094
1.0021
1.00557
1.01261
1.03292
1.07748
1.19883
1.50685
2.3505
4.55566
7.85413
8.28473
8.25295
8.15955
8.06327
8.03213
1
1
1
1
1.00001
1.00002
1.00004
1.00011
1.00025
1.00065
1.0015
1.00381
1.00909
1.02241
1.05485
1.13586
1.34509
1.90551
3.41107
6.96857
8.26086
8.44609
8.4404
8.427
8.42552
1
1
1
1
1.00001
1.00001
1.00003
1.00007
1.00019
1.00044
1.00108
1.00266
1.00634
1.016
1.03802
1.09596
1.23819
1.62364
2.66445
5.37651
8.12793
8.75153
8.84322
8.87021
8.86849
1
1
1
1
1
1.00001
1.00002
1.00005
1.00013
1.0003
1.00076
1.00184
1.00444
1.01105
1.02634
1.06599
1.16161
1.41509
2.08598
3.855
7.69506
9.11181
9.36837
9.37514
9.35365
1
1
1
1
1
1.00001
1.00002
1.00004
1.00009
1.00021
1.00057
1.00127
1.00335
1.00768
1.0198
1.0469
1.11881
1.2984
1.78965
3.14313
6.63812
9.47791
9.95652
9.92863
9.83329
1
1
1
1
1
1
1.00001
1.00003
1.00006
1.00017
1.00038
1.00101
1.00228
1.00603
1.01373
1.03574
1.08468
1.21762
1.5595
2.50783
5.0326
9.82952
10.588
10.4954
10.2536
1
1
1
1
1
1
1.00001
1.00002
1.00005
1.00013
1.0003
1.00079
1.00183
1.00471
1.01115
1.02805
1.06855
1.17309
1.44748
2.21674
4.39929
9.64415
11.0149
10.8936
10.5505
1
1
1
1
1
1
1.00001
1.00002
1.00004
1.00011
1.00025
1.00066
1.00151
1.00403
1.00915
1.02437
1.05713
1.14871
1.37945
2.04279
3.97286
9.11155
11.2881
11.1428
10.7078
1
1
1
1
1
1
1.00001
1.00001
1.00004
1.00009
1.00022
1.00056
1.00133
1.00346
1.00803
1.02118
1.0501
1.13014
1.33175
1.91031
3.60753
8.41024
11.5818
11.3416
10.7188
1
1
1
1
1
1
1.00001
1.00001
1.00003
1.00008
1.00019
1.00051
1.00115
1.00311
1.00706
1.01899
1.04444
1.11634
1.29494
1.80739
3.31771
7.76691
11.8948
11.4937
10.6646
1
1
1
1
1
1
1
1.00001
1.00003
1.00007
1.00018
1.00042
1.00112
1.00257
1.0069
1.01594
1.04207
1.10195
1.26823
1.71914
3.07378
7.14455
12.1571
11.5629
10.5997
1
1
1
1
1
1
1
1.00001
1.00003
1.00007
1.00015
1.00042
1.00094
1.00254
1.00581
1.0155
1.03658
1.09498
1.24016
1.64891
2.85351
6.51935
12.3412
11.6062
10.588
1
1
1
1
1
1
1
1.00001
1.00003
1.00006
1.00016
1.00036
1.00095
1.00218
1.00585
1.01347
1.03568
1.08541
1.22391
1.58996
2.6731
5.93064
12.3814
11.6107
10.597
1
1
1
1
1
1
1
1.00001
1.00002
1.00006
1.00014
1.00035
1.00088
1.0021
1.00548
1.01284
1.0336
1.08095
1.21096
1.55471
2.56617
5.61323
12.2306
11.5825
10.6268
1
1
1
1
1
1
1
1.00001
1.00002
1.00005
1.00014
1.00033
1.00086
1.00202
1.00519
1.01255
1.03157
1.07838
1.2002
1.52942
2.48405
5.36466
11.9634
11.5284
10.6731
1
1
1
1
1
1
1
1.00001
1.00002
1.00005
1.00014
1.00031
1.00084
1.00191
1.00513
1.01173
1.0313
1.07413
1.19441
1.50642
2.4217
5.1623
11.6953
11.4264
10.7575
1
1
1
1
1
1
1
1.00001
1.00002
1.00005
1.00012
1.00033
1.00075
1.00201
1.00458
1.0123
1.0285
1.07487
1.18451
1.49309
2.36745
4.99531
11.4375
11.315
10.8286
1
1
1
1
1
1
1
1.00001
1.00002
1.00005
1.00012
1.00032
1.00074
1.00193
1.00457
1.01166
1.02848
1.07163
1.18104
1.47696
2.32537
4.85378
11.2037
11.2057
10.8675
1
1
1
1
1
1
1
1.00001
1.00002
1.00005
1.00012
1.00031
1.00071
1.00191
1.00434
1.0117
1.02703
1.07111
1.17477
1.46586
2.2853
4.72939
10.97
11.1689
10.8621
1
1
1
1
1
1
1
1.00001
1.00002
1.00005
1.00012
1.0003
1.00073
1.00178
1.00451
1.01083
1.02767
1.06751
1.17314
1.45173
2.25248
4.62059
10.7557
11.1495
10.8503
1
1
1
1
1
1
1
1.00001
1.00002
1.00005
1.00011
1.0003
1.00069
1.00181
1.00426
1.0109
1.02654
1.06679
1.16819
1.44158
2.22069
4.52935
10.5674
11.1333
10.8405
1
1
1
1
1
1
1
1.00001
1.00002
1.00004
1.00012
1.00028
1.00072
1.00171
1.0043
1.01061
1.02617
1.06552
1.16494
1.43202
2.19189
4.45479
10.4056
11.1199
10.8326
1
1
1
1
1
1
1
1.00001
1.00002
1.00004
1.00012
1.00027
1.00072
1.00163
1.00441
1.01005
1.02672
1.06322
1.16441
1.42354
2.17406
4.39218
10.2693
11.1098
10.8271
1
1
1
1
1
1
1
1.00001
1.00002
1.00005
1.00011
1.00029
1.00066
1.00177
1.00402
1.01078
1.02489
1.06518
1.15947
1.42218
2.15703
4.3471
10.1623
11.1026
10.8236
1
1
1
1
1
1
1
1.00001
1.00002
1.00005
1.00011
1.00029
1.00065
1.00176
1.004
1.01069
1.0248
1.0646
1.15857
1.41868
2.14794
4.31569
10.0895
11.0983
10.8216
1
1
1
1
1
1
1
1.00001
1.00002
1.00004
1.00012
1.00027
1.00071
1.00162
1.00433
1.00989
1.02626
1.06195
1.1612
1.41388
2.14561
4.29884
10.0528
11.0966
10.8211
3.80861
3.33139
4.32631
4.32036
4.09061
3.99986
3.95693
3.89014
3.80777
3.73333
3.68638
3.66455
3.65672
3.65553
3.67067
3.70445
3.75464
3.8172
3.88645
3.95967
4.0354
4.11279
4.19087
4.269
4.34627
4.42212
4.49707
4.56898
4.63667
4.69913
4.75626
4.80799
4.85475
4.89662
4.93254
4.96549
4.99391
5.01502
5.0299
5.03939
5.04399
5.04377
5.04104
5.03357
5.02012
5.00313
4.98325
4.96024
4.93447
4.9058
4.87476
4.84135
4.8059
4.7685
4.72937
4.68861
4.64647
4.60291
4.55825
4.51243
4.4657
4.41805
4.36964
4.32055
4.27085
4.22066
4.17005
4.11911
4.06795
4.01665
3.96533
3.91405
3.86294
3.81207
3.76154
3.71142
3.66179
3.61273
3.5643
3.51656
3.46957
3.4234
3.37811
3.33376
3.29041
3.24814
3.20702
3.16715
3.12866
3.09169
3.05637
3.02291
2.99157
2.96269
2.93668
2.91404
2.89535
2.88124
2.87191
2.87006
4.72586
4.28127
4.41627
4.28369
4.06669
4.02638
4.00804
3.90905
3.803
3.7146
3.66978
3.65245
3.64898
3.6539
3.66935
3.70031
3.74943
3.81241
3.8819
3.95494
4.03043
4.10738
4.18507
4.2627
4.33929
4.41346
4.48905
4.56086
4.62869
4.69119
4.7487
4.80074
4.84762
4.88941
4.92643
4.9591
4.98708
5.00854
5.02378
5.03357
5.03825
5.03815
5.03612
5.0298
5.01644
4.9986
4.97855
4.95599
4.93048
4.90212
4.8712
4.83795
4.80262
4.76533
4.72631
4.68565
4.64356
4.60011
4.55548
4.50976
4.46306
4.41549
4.36713
4.31809
4.26845
4.21831
4.16775
4.11687
4.06577
4.01454
3.96328
3.91208
3.86105
3.81027
3.75984
3.70982
3.6603
3.61134
3.563
3.51535
3.46844
3.42234
3.37712
3.33282
3.28954
3.24733
3.20626
3.16643
3.12797
3.09107
3.05583
3.02247
2.99123
2.96246
2.93658
2.91411
2.89561
2.88175
2.87277
2.87206
5.55319
4.84793
4.58177
4.33141
4.11845
4.03772
3.96407
3.88365
3.79327
3.71861
3.67796
3.66349
3.65293
3.64609
3.6576
3.69238
3.74155
3.80597
3.87523
3.94843
4.0241
4.10123
4.17911
4.25689
4.33384
4.40944
4.48397
4.5555
4.62301
4.68559
4.74293
4.79502
4.84186
4.88362
4.92057
4.95302
4.98052
5.00196
5.01733
5.02717
5.03172
5.0316
5.02995
5.02463
5.01265
4.99367
4.97296
4.95034
4.92507
4.89695
4.86621
4.83309
4.79784
4.76065
4.72168
4.68109
4.63903
4.59565
4.55105
4.50538
4.45872
4.41119
4.36287
4.31387
4.26429
4.21419
4.1637
4.11288
4.06186
4.01071
3.95956
3.90848
3.85758
3.80695
3.75668
3.70683
3.65748
3.60868
3.56051
3.51301
3.46629
3.42035
3.37529
3.33109
3.28801
3.24597
3.20513
3.1655
3.12728
3.09048
3.05543
3.02226
2.99129
2.96281
2.93729
2.91523
2.89734
2.88423
2.87667
2.87694
5.9239
5.15618
4.71823
4.43382
4.2209
4.08922
4.00163
3.92138
3.83276
3.75483
3.70118
3.6705
3.6556
3.65667
3.66763
3.69658
3.7464
3.80807
3.87647
3.9486
4.02343
4.10004
4.17747
4.25469
4.33097
4.40546
4.47822
4.54844
4.61499
4.67687
4.73368
4.78533
4.83177
4.87317
4.90966
4.94154
4.96842
4.98973
5.00525
5.0152
5.01975
5.01961
5.01824
5.01389
5.00381
4.98476
4.96325
4.94017
4.91496
4.8872
4.85683
4.82403
4.78903
4.75204
4.71325
4.67283
4.63093
4.58769
4.54324
4.4977
4.45118
4.40379
4.35561
4.30675
4.2573
4.20734
4.15699
4.10632
4.05546
4.0045
3.95354
3.90269
3.85204
3.80168
3.7517
3.70214
3.6531
3.60461
3.5567
3.50944
3.46301
3.41734
3.37262
3.32878
3.28592
3.24409
3.20349
3.16412
3.12618
3.08974
3.05507
3.02234
2.99186
2.96398
2.93918
2.918
2.90122
2.88948
2.88438
2.88502
6.12015
5.38961
4.89741
4.57764
4.35571
4.2035
4.10337
4.02459
3.9441
3.8666
3.80407
3.76005
3.73165
3.71655
3.71734
3.72732
3.75589
3.81456
3.8852
3.95743
4.03133
4.10663
4.1824
4.25797
4.33238
4.40507
4.47544
4.54353
4.60809
4.66841
4.72392
4.77448
4.82004
4.86062
4.89637
4.92739
4.9536
4.97459
4.99014
5.00017
5.00477
5.00461
5.00338
4.99965
4.99105
4.97362
4.95158
4.92776
4.90232
4.87477
4.84479
4.81238
4.7777
4.74098
4.70242
4.66221
4.62049
4.57744
4.53316
4.4878
4.44145
4.39422
4.34621
4.29752
4.24824
4.19847
4.14829
4.09784
4.04719
3.99649
3.94581
3.89527
3.84495
3.795
3.74541
3.69619
3.6475
3.59938
3.55195
3.50517
3.45912
3.41383
3.36944
3.32592
3.28342
3.24197
3.20175
3.16282
3.12537
3.0895
3.05545
3.02341
2.99377
2.9669
2.94334
2.92366
2.90869
2.89923
2.89723
2.89821
6.25411
5.59662
5.10232
4.75943
4.52722
4.37391
4.27783
4.20833
4.13808
4.05963
3.9794
3.90545
3.84419
3.80201
3.78505
3.78709
3.79901
3.83057
3.89483
3.96969
4.04578
4.12134
4.19492
4.26746
4.33833
4.40718
4.47403
4.53835
4.59985
4.65773
4.71136
4.76042
4.80474
4.84426
4.87904
4.90913
4.93458
4.95511
4.97055
4.9807
4.98546
4.98531
4.98421
4.98095
4.97344
4.95806
4.93641
4.91225
4.88648
4.85891
4.82918
4.79715
4.76287
4.7265
4.68826
4.64831
4.60687
4.56405
4.52003
4.4749
4.42879
4.38181
4.33404
4.28559
4.23654
4.18701
4.13708
4.0869
4.03655
3.98618
3.93586
3.8857
3.83578
3.7863
3.73726
3.68872
3.64064
3.59306
3.54614
3.4998
3.45422
3.40935
3.36539
3.3223
3.28029
3.23935
3.1997
3.16139
3.12466
3.08962
3.05648
3.02555
2.99722
2.97193
2.95026
2.9329
2.92062
2.91496
2.91525
2.9171
6.36093
5.78222
5.31436
4.97286
4.7392
4.59286
4.50686
4.44935
4.38719
4.30438
4.20433
4.0997
4.00554
3.93281
3.8865
3.86867
3.87126
3.88375
3.91586
3.98124
4.05978
4.13736
4.21081
4.28099
4.34777
4.41189
4.47391
4.53404
4.59174
4.64648
4.69764
4.74479
4.78756
4.82579
4.85936
4.88842
4.91298
4.9329
4.94806
4.95823
4.96312
4.96297
4.96195
4.95897
4.95221
4.93838
4.9179
4.89409
4.8682
4.84049
4.81083
4.77906
4.74514
4.70917
4.6713
4.63171
4.59058
4.54808
4.50436
4.45953
4.41372
4.36703
4.31955
4.27139
4.22265
4.17342
4.12384
4.074
4.02409
3.97412
3.92435
3.87489
3.82579
3.77694
3.72851
3.68051
3.63301
3.58595
3.53953
3.49369
3.44863
3.40429
3.36089
3.3184
3.27703
3.2368
3.19792
3.1605
3.12478
3.09082
3.05902
3.0297
3.00327
2.98027
2.9613
2.94727
2.93894
2.93804
2.93898
2.94243
6.45633
5.95474
5.53306
5.21504
4.99801
4.86779
4.79708
4.74875
4.68564
4.58943
4.4648
4.32836
4.19908
4.09224
4.01448
3.969
3.95632
3.95988
3.97374
4.00706
4.07393
4.15016
4.22387
4.29262
4.35628
4.41655
4.47447
4.53011
4.58337
4.63424
4.68228
4.72697
4.76782
4.80454
4.83673
4.86469
4.88819
4.90736
4.92207
4.93205
4.9371
4.93699
4.93604
4.93328
4.92703
4.91427
4.89521
4.87229
4.84669
4.81895
4.78928
4.75762
4.72399
4.68837
4.65092
4.61173
4.57102
4.52889
4.48555
4.44108
4.39565
4.34931
4.3022
4.25439
4.20602
4.15715
4.108
4.05857
4.0092
3.96006
3.91111
3.86241
3.81402
3.76587
3.71806
3.67064
3.62372
3.57729
3.53149
3.48629
3.44189
3.39825
3.35557
3.31387
3.27333
3.23405
3.19622
3.16003
3.1256
3.09323
3.06327
3.03617
3.01239
2.99255
2.97738
2.9678
2.96533
2.96621
2.96911
2.97693
6.55678
6.13173
5.76824
5.49254
5.308
5.20087
5.14189
5.08928
5.00843
4.8869
4.73326
4.56729
4.40885
4.27372
4.1691
4.09869
4.06122
4.05382
4.05748
4.07079
4.10217
4.16385
4.23193
4.29745
4.35931
4.41782
4.47275
4.52439
4.57346
4.6204
4.66504
4.70696
4.7456
4.78052
4.81134
4.83809
4.86043
4.87885
4.89302
4.90272
4.90777
4.90767
4.90679
4.9042
4.89835
4.88643
4.86875
4.84706
4.82221
4.7948
4.76524
4.73371
4.70031
4.66504
4.62801
4.58929
4.54905
4.5074
4.46451
4.42049
4.37549
4.32958
4.28288
4.23547
4.18752
4.13904
4.09044
4.04193
3.99344
3.94511
3.89696
3.849
3.80129
3.75384
3.70673
3.66
3.61377
3.56805
3.52298
3.47855
3.43492
3.39212
3.3503
3.30957
3.27007
3.23199
3.19552
3.16081
3.12807
3.09779
3.07029
3.04609
3.02578
3.01007
2.99971
2.99609
2.99679
2.99945
3.0065
3.02217
6.67654
6.3307
6.03655
5.81593
5.67077
5.58176
5.51772
5.44057
5.32619
5.17212
4.99147
4.80359
4.6259
4.47162
4.34672
4.25528
4.19501
4.16316
4.15434
4.15675
4.16684
4.1916
4.2415
4.29821
4.35587
4.41233
4.46546
4.51475
4.56093
4.60458
4.64597
4.68494
4.7211
4.75398
4.78322
4.80866
4.83011
4.8477
4.86129
4.87065
4.87563
4.87554
4.87469
4.87219
4.8666
4.85524
4.83873
4.81828
4.79442
4.76763
4.7384
4.70707
4.67387
4.63888
4.60224
4.56397
4.52423
4.48309
4.44072
4.39721
4.35269
4.30725
4.26101
4.21406
4.1666
4.11902
4.07126
4.02358
3.97595
3.92842
3.88102
3.83381
3.78683
3.74014
3.69382
3.64789
3.60247
3.55758
3.51335
3.46981
3.42711
3.38532
3.34459
3.30506
3.26691
3.23038
3.19568
3.16284
3.1324
3.10481
3.08054
3.06017
3.04438
3.03399
3.02982
3.03044
3.03295
3.03962
3.05362
3.08245
6.83215
6.56765
6.34815
6.18458
6.07079
5.98216
5.89143
5.77314
5.61765
5.43268
5.23242
5.03227
4.84528
4.6805
4.54313
4.43401
4.3532
4.29812
4.26564
4.24951
4.24992
4.25478
4.26988
4.30264
4.35122
4.39972
4.44996
4.49794
4.54294
4.5848
4.62385
4.66021
4.69381
4.72447
4.75194
4.77603
4.79658
4.81346
4.82656
4.83556
4.84051
4.8404
4.83954
4.83709
4.83167
4.82071
4.80521
4.78595
4.7632
4.7373
4.70869
4.67777
4.64488
4.61023
4.57397
4.53617
4.49696
4.4564
4.41461
4.37168
4.32771
4.2828
4.23703
4.19075
4.14417
4.09749
4.05071
4.00391
3.95713
3.91041
3.86384
3.81745
3.77133
3.72551
3.68007
3.63505
3.59055
3.54662
3.50336
3.46088
3.41928
3.37871
3.3393
3.30127
3.26482
3.23025
3.19748
3.16717
3.13973
3.11562
3.09545
3.07993
3.06979
3.06581
3.06647
3.06913
3.07626
3.09149
3.11283
3.15271
7.03737
6.85526
6.70537
6.58592
6.48162
6.3694
6.2332
6.06703
5.87486
5.66752
5.45702
5.25348
5.06488
4.89625
4.75098
4.62857
4.52996
4.45355
4.39751
4.35888
4.33579
4.32593
4.32743
4.33489
4.35357
4.39145
4.42914
4.4728
4.51657
4.55809
4.59634
4.63119
4.66284
4.69147
4.71721
4.73996
4.7596
4.77588
4.78867
4.79753
4.80239
4.80228
4.80143
4.79904
4.79381
4.78327
4.76859
4.75036
4.72871
4.70383
4.67607
4.64579
4.6134
4.57918
4.54335
4.50604
4.46737
4.4274
4.38623
4.34391
4.30052
4.25617
4.21121
4.16585
4.12026
4.07451
4.02865
3.98274
3.93683
3.89102
3.84534
3.79987
3.75467
3.70979
3.66533
3.6213
3.57783
3.53498
3.49286
3.45159
3.41131
3.37219
3.33442
3.29824
3.26395
3.23156
3.20148
3.17437
3.15067
3.13097
3.11597
3.10645
3.10306
3.1038
3.10678
3.11426
3.12992
3.15732
3.18262
3.22507
7.30679
7.19703
7.09719
6.99486
6.87153
6.71561
6.52879
6.32058
6.10208
5.88304
5.67057
5.46981
5.28404
5.11534
4.96482
4.83221
4.71853
4.62308
4.5452
4.48408
4.43832
4.40708
4.38806
4.38372
4.38625
4.39586
4.41794
4.4477
4.48347
4.52288
4.56065
4.5951
4.62592
4.65345
4.67802
4.69974
4.71858
4.73441
4.74689
4.75576
4.7608
4.7607
4.7599
4.75764
4.75269
4.74273
4.72876
4.71143
4.69083
4.66704
4.6403
4.61091
4.57924
4.54563
4.51034
4.47359
4.43548
4.39614
4.35559
4.31389
4.27114
4.22764
4.18368
4.13936
4.09477
4.04999
4.00508
3.96013
3.91519
3.87035
3.82565
3.78119
3.737
3.69317
3.64977
3.60687
3.56457
3.52296
3.48218
3.44236
3.40368
3.36634
3.33059
3.29676
3.26494
3.23529
3.20873
3.18565
3.16666
3.15239
3.14375
3.14142
3.14238
3.14578
3.15438
3.17219
3.19853
3.23052
3.2562
3.29598
7.63832
7.57832
7.5007
7.38461
7.2179
7.00934
6.7778
6.5403
6.30788
6.08645
5.87808
5.68349
5.50232
5.33461
5.18015
5.03864
4.91225
4.8004
4.70355
4.62201
4.55536
4.50317
4.46411
4.43848
4.42325
4.4233
4.42645
4.4365
4.45738
4.48472
4.51813
4.55084
4.58113
4.60854
4.63293
4.65429
4.67273
4.6883
4.70067
4.70962
4.71519
4.71514
4.71447
4.71248
4.70797
4.69881
4.68562
4.6692
4.64965
4.62699
4.60139
4.57307
4.54236
4.50957
4.47501
4.43891
4.40145
4.36275
4.32282
4.28179
4.23991
4.19747
4.15458
4.11133
4.06778
4.02403
3.98016
3.93623
3.89234
3.84854
3.80492
3.76154
3.71847
3.67579
3.63358
3.59195
3.55098
3.51082
3.47159
3.4335
3.39675
3.3616
3.32837
3.29734
3.26835
3.24249
3.22022
3.20218
3.18898
3.18114
3.18027
3.18147
3.18563
3.19552
3.21565
3.24366
3.27389
3.30545
3.32825
3.36238
8.01423
7.97634
7.89669
7.73699
7.50839
7.24962
6.98743
6.73621
6.50164
6.28478
6.08351
5.89554
5.71839
5.55109
5.393
5.24535
5.10692
4.98099
4.86817
4.76909
4.68381
4.61228
4.55394
4.50864
4.47531
4.45447
4.44337
4.44387
4.44771
4.4576
4.47785
4.50289
4.53006
4.55673
4.58113
4.6027
4.62129
4.63697
4.64937
4.6586
4.66463
4.66532
4.66478
4.66301
4.659
4.65085
4.63869
4.62332
4.60488
4.58344
4.55909
4.53203
4.50249
4.47075
4.43712
4.40184
4.36515
4.32713
4.28789
4.24773
4.20692
4.1656
4.12382
4.08168
4.03924
3.9966
3.95383
3.91102
3.86826
3.8256
3.78314
3.74095
3.69911
3.65771
3.61687
3.57667
3.53726
3.49878
3.46143
3.42543
3.39105
3.35862
3.32856
3.30043
3.27544
3.25424
3.23733
3.22553
3.21889
3.21909
3.2208
3.22606
3.23779
3.26089
3.28952
3.32068
3.35013
3.37765
3.39544
3.42245
8.41545
8.37488
8.26806
8.04196
7.74216
7.44622
7.17084
6.91967
6.69135
6.48253
6.28856
6.10559
5.93053
5.76221
5.60019
5.4455
5.29844
5.16147
5.0356
4.92182
4.82053
4.73202
4.65616
4.59275
4.54125
4.50164
4.4732
4.45549
4.44674
4.4472
4.45035
4.45938
4.47812
4.50018
4.5228
4.54426
4.56334
4.57957
4.59246
4.60221
4.60877
4.61065
4.61022
4.60876
4.60539
4.59851
4.58754
4.57337
4.5562
4.53611
4.51318
4.48754
4.45937
4.42891
4.39644
4.3622
4.32643
4.28921
4.2509
4.21184
4.17219
4.13201
4.09141
4.05044
4.00919
3.96775
3.92617
3.88458
3.84303
3.80163
3.76044
3.71957
3.67911
3.63917
3.59987
3.56133
3.52375
3.48728
3.45219
3.41874
3.38729
3.35832
3.3313
3.30742
3.28748
3.27197
3.2617
3.25701
3.25754
3.26014
3.26705
3.28182
3.30691
3.33682
3.36804
3.39762
3.42276
3.44396
3.45576
3.47589
8.84534
8.76528
8.57826
8.25797
7.92597
7.61938
7.34556
7.1021
6.88291
6.68177
6.49291
6.3122
6.13697
5.96629
5.80018
5.63961
5.48535
5.33955
5.20315
5.07728
4.96257
4.85949
4.76813
4.68837
4.62014
4.5633
4.51753
4.48251
4.45747
4.44311
4.43472
4.43486
4.43763
4.44545
4.46157
4.48004
4.49866
4.51522
4.52913
4.53975
4.54719
4.55067
4.55042
4.54936
4.54677
4.54139
4.53169
4.5189
4.5032
4.48465
4.46331
4.43928
4.41268
4.38374
4.35265
4.3197
4.285
4.2489
4.21183
4.17402
4.1356
4.09665
4.0573
4.01758
3.97761
3.93744
3.89718
3.8569
3.81669
3.77665
3.73688
3.6975
3.65859
3.62032
3.58281
3.54625
3.51082
3.47679
3.44446
3.41416
3.38647
3.36085
3.33821
3.31986
3.30589
3.29731
3.29495
3.29596
3.2995
3.30848
3.32695
3.35391
3.38504
3.4166
3.44569
3.47031
3.48905
3.50302
3.50962
3.52304
9.27597
9.09234
8.77291
8.42143
8.08679
7.78677
7.523
7.28945
7.07813
6.88178
6.69477
6.51352
6.33618
6.16223
5.99205
5.82651
5.66656
5.51345
5.36862
5.23299
5.10729
4.99195
4.8872
4.79321
4.70998
4.6375
4.57553
4.52397
4.48258
4.45123
4.43
4.41573
4.40588
4.40637
4.4092
4.41636
4.43071
4.44504
4.45912
4.47061
4.47929
4.48482
4.48528
4.4847
4.4829
4.4789
4.47088
4.45962
4.44553
4.42868
4.40912
4.38688
4.36208
4.33486
4.30542
4.27397
4.24071
4.20612
4.1705
4.13409
4.09703
4.05944
4.02143
3.98308
3.94448
3.9057
3.86686
3.82801
3.78929
3.75079
3.71262
3.67492
3.63781
3.60148
3.56608
3.53186
3.49905
3.468
3.43906
3.41283
3.38884
3.36777
3.35103
3.33932
3.33207
3.33226
3.33394
3.33904
3.35043
3.37323
3.40209
3.43404
3.46583
3.49455
3.5183
3.53613
3.54791
3.55507
3.55813
3.56493
9.61958
9.28418
8.91668
8.56281
8.2415
7.95746
7.70687
7.48224
7.27564
7.0804
6.89206
6.70805
6.52731
6.34968
6.17565
6.00591
5.8414
5.68254
5.53107
5.38763
5.25294
5.12741
5.01145
4.90526
4.80889
4.72232
4.64558
4.5787
4.52167
4.47443
4.43677
4.40968
4.38764
4.37162
4.36515
4.36559
4.36797
4.37385
4.38524
4.39564
4.40503
4.41207
4.41501
4.41473
4.41359
4.41082
4.40506
4.39545
4.38304
4.36798
4.35029
4.32999
4.30717
4.28191
4.2544
4.22477
4.19335
4.16057
4.12668
4.0919
4.05639
4.02031
3.98377
3.94691
3.9098
3.87255
3.83525
3.79801
3.76095
3.72417
3.68784
3.65207
3.61707
3.58302
3.55016
3.51876
3.48916
3.46177
3.43722
3.41507
3.39584
3.38105
3.37143
3.36724
3.36789
3.37082
3.37844
3.39449
3.42016
3.45093
3.48373
3.51556
3.54377
3.56674
3.58348
3.59413
3.59948
3.6012
3.60174
3.60386
9.83576
9.41646
9.03442
8.69598
8.39774
8.13375
7.89669
7.67854
7.47297
7.27548
7.08338
6.89521
6.71047
6.52914
6.35159
6.17827
6.00982
5.84648
5.68981
5.5401
5.39806
5.26409
5.13868
5.02195
4.91415
4.81521
4.72542
4.6448
4.57339
4.51119
4.45829
4.41485
4.38144
4.35286
4.33064
4.31838
4.31255
4.31282
4.3145
4.31875
4.32669
4.33335
4.33837
4.33945
4.33897
4.33739
4.3338
4.32656
4.31598
4.30267
4.2868
4.26848
4.24775
4.22468
4.19935
4.17191
4.14274
4.1121
4.08021
4.0473
4.01356
3.97918
3.94429
3.90907
3.8736
3.83803
3.80245
3.76701
3.73181
3.69702
3.66279
3.6293
3.59679
3.56547
3.53567
3.50773
3.4821
3.45945
3.43941
3.42217
3.40989
3.40207
3.40135
3.40274
3.4072
3.41794
3.43944
3.46774
3.50028
3.5338
3.56559
3.59332
3.61536
3.63115
3.64055
3.6446
3.64444
3.64351
3.64099
3.64134
9.98186
9.50968
9.13679
8.82861
8.56017
8.31665
8.08964
7.87401
7.6663
7.46446
7.26747
7.07472
6.88599
6.7012
6.52049
6.34408
6.1723
6.00556
5.84428
5.68938
5.54132
5.40041
5.26704
5.14141
5.02377
4.9142
4.81292
4.71991
4.63536
4.55949
4.49252
4.43446
4.38551
4.34635
4.31143
4.28349
4.26566
4.25504
4.24924
4.24925
4.25004
4.25223
4.25669
4.25954
4.25945
4.25879
4.25689
4.25275
4.24455
4.23304
4.21898
4.20264
4.18407
4.16331
4.14041
4.11549
4.08884
4.0606
4.031
4.00023
3.96851
3.93605
3.90304
3.86964
3.83601
3.80232
3.76867
3.73525
3.70218
3.66968
3.63791
3.60712
3.57757
3.54957
3.5235
3.49984
3.47929
3.46164
3.4467
3.43687
3.43237
3.43298
3.4357
3.44322
3.45894
3.48456
3.51569
3.54972
3.58381
3.61542
3.64276
3.66391
3.67868
3.6872
3.68956
3.68914
3.68747
3.68344
3.675
3.67449
10.0603
9.58181
9.24047
8.96952
8.72911
8.50131
8.27961
8.0629
7.85111
7.64438
7.44268
7.24586
7.05369
6.86597
6.68258
6.50352
6.32893
6.15905
5.994
5.83489
5.68186
5.53513
5.39503
5.26179
5.13565
5.01678
4.90538
4.80156
4.70561
4.61757
4.53774
4.46625
4.40328
4.34894
4.30437
4.26403
4.23099
4.20794
4.19212
4.18252
4.17708
4.17553
4.17575
4.17644
4.17696
4.17669
4.17573
4.17333
4.16827
4.15904
4.14722
4.13309
4.11677
4.09837
4.07799
4.05572
4.03172
4.00611
3.97903
3.95067
3.92125
3.89096
3.86007
3.82873
3.79719
3.76559
3.73414
3.70302
3.67243
3.64258
3.61373
3.58615
3.56018
3.5362
3.51476
3.49659
3.48144
3.46943
3.46179
3.46135
3.46277
3.46749
3.47865
3.50092
3.52973
3.56335
3.59875
3.63334
3.6647
3.69127
3.71154
3.72554
3.73324
3.73455
3.73392
3.73192
3.72704
3.71799
3.70473
3.70291
10.0814
9.65161
9.35695
9.11934
8.89756
8.6775
8.45723
8.23857
8.02349
7.81319
7.60814
7.4083
7.21347
7.02333
6.83764
6.65625
6.47915
6.30642
6.13817
5.9754
5.81812
5.66648
5.52066
5.38092
5.24748
5.12056
5.00038
4.88712
4.78103
4.68224
4.59103
4.50758
4.43219
4.36509
4.30637
4.25692
4.21126
4.17376
4.14546
4.12484
4.11079
4.10207
4.09715
4.09479
4.09387
4.09319
4.09216
4.09032
4.08686
4.08072
4.07183
4.06034
4.04652
4.03055
4.01265
3.99304
3.97176
3.94889
3.92451
3.89878
3.87189
3.84407
3.81555
3.78658
3.75739
3.72821
3.69928
3.67083
3.64311
3.6164
3.591
3.56728
3.54565
3.52656
3.51111
3.49869
3.4895
3.48586
3.48659
3.48986
3.49818
3.51547
3.54207
3.57449
3.61016
3.64666
3.68158
3.71277
3.73864
3.75838
3.77144
3.77835
3.77872
3.77796
3.77567
3.7703
3.75964
3.74789
3.7323
3.72886
10.0802
9.72508
9.47845
9.26367
9.05066
8.83348
8.61402
8.39528
8.17955
7.96816
7.76176
7.56042
7.36399
7.17219
6.98474
6.80145
6.62225
6.44714
6.27627
6.10973
5.94861
5.79269
5.64199
5.49668
5.35697
5.22313
5.09539
4.97396
4.85911
4.75099
4.64989
4.55596
4.46951
4.39074
4.31991
4.25724
4.20327
4.15335
4.1121
4.07975
4.05496
4.03693
4.02459
4.01674
4.01215
4.00944
4.00755
4.00583
4.00345
3.99954
3.99335
3.98473
3.97368
3.96039
3.94515
3.92821
3.90964
3.8895
3.86789
3.84493
3.82078
3.79567
3.76982
3.74351
3.71702
3.69062
3.6646
3.63926
3.61492
3.59192
3.57067
3.55157
3.53528
3.52251
3.51349
3.50688
3.50713
3.50913
3.51509
3.52809
3.55242
3.58267
3.61773
3.65528
3.6928
3.72795
3.75886
3.78416
3.80318
3.81554
3.82183
3.82174
3.82083
3.81821
3.8124
3.80158
3.78812
3.77467
3.75781
3.75306
10.0821
9.79836
9.58861
9.38585
9.17622
8.96163
8.74535
8.5298
8.3166
8.10689
7.90134
7.70018
7.50341
7.31083
7.12228
6.93757
6.75665
6.57946
6.40596
6.23629
6.07182
5.91209
5.75712
5.60701
5.46195
5.32219
5.18799
5.0596
4.93725
4.82115
4.71154
4.60858
4.51256
4.42366
4.34219
4.26833
4.20254
4.14443
4.09109
4.04674
4.01061
3.98218
3.96078
3.94548
3.93518
3.92858
3.92443
3.92167
3.91935
3.9167
3.91272
3.90683
3.89866
3.8883
3.87592
3.86176
3.84594
3.82858
3.80978
3.78968
3.76843
3.74625
3.72336
3.70006
3.67663
3.65342
3.63077
3.60908
3.58872
3.57013
3.55385
3.54029
3.5306
3.52438
3.52253
3.52374
3.52813
3.53838
3.55923
3.5871
3.62112
3.65883
3.69792
3.73626
3.77165
3.80237
3.8272
3.84563
3.85767
3.8631
3.86299
3.862
3.85917
3.85298
3.84205
3.82882
3.81373
3.79899
3.78121
3.77547
10.0986
9.86138
9.67267
9.47612
9.2706
9.06157
8.85169
8.64211
8.43389
8.22797
8.02506
7.82556
7.6296
7.43718
7.24821
7.06266
6.88048
6.70168
6.52626
6.35437
6.18623
6.02287
5.86412
5.70988
5.5603
5.41559
5.27599
5.14179
5.01316
4.89036
4.77356
4.66296
4.5588
4.46125
4.37061
4.28708
4.21093
4.14269
4.08112
4.02511
3.97818
3.93924
3.90794
3.88376
3.86594
3.85355
3.84519
3.83999
3.83651
3.83383
3.83115
3.82753
3.8221
3.81479
3.80546
3.79423
3.78126
3.7667
3.75075
3.73356
3.71536
3.69632
3.67671
3.65675
3.63684
3.61731
3.59863
3.58121
3.5656
3.55226
3.54191
3.53503
3.53263
3.53333
3.53661
3.54476
3.56165
3.58746
3.61967
3.65661
3.69645
3.73707
3.7762
3.81181
3.84238
3.86695
3.885
3.89674
3.90192
3.90177
3.90077
3.89788
3.89171
3.88099
3.86778
3.8531
3.83688
3.82109
3.80257
3.79609
10.1328
9.9097
9.7271
9.5362
9.33838
9.13792
8.93626
8.734