/*--------------------------------*- C++ -*----------------------------------*\
  =========                 |
  \\      /  F ield         | OpenFOAM: The Open Source CFD Toolbox
   \\    /   O peration     | Website:  https://openfoam.org
    \\  /    A nd           | Version:  13
     \\/     M anipulation  |
\*---------------------------------------------------------------------------*/
FoamFile
{
    format      ascii;
    class       surfaceScalarField;
    location    "9.5";
    object      phi;
}
// * * * * * * * * * * * * * * * * * * * * * * * * * * * * * * * * * * * * * //

dimensions      [1 0 -1 0 0 0 0];

internalField   nonuniform List<scalar> 
10325
(
0.0840003
-1.01827e-11
0.0840003
7.74579e-09
0.0840002
6.90492e-09
0.0840004
6.69194e-08
0.0839998
7.32927e-08
0.0839987
3.68062e-07
0.0840001
6.09354e-07
0.0839881
2.11184e-06
0.084001
4.47667e-06
0.0839663
1.22483e-05
0.0839463
3.18294e-05
0.083849
9.17858e-05
0.0835645
0.000302297
0.0822706
0.00124587
0.0763247
0.00587461
0.0702235
0.00610713
0.064148
0.00608138
0.0578455
0.006304
0.0512177
0.00662891
0.0441146
0.00710264
0.036434
0.0076787
0.0281772
0.00825478
0.0193838
0.00879039
0.0100271
0.00935371
0.0100239
0.0840003
1.48761e-09
0.0840004
8.87479e-09
0.0839998
3.56735e-08
0.0840013
9.22053e-08
0.0839983
2.40566e-07
0.0840016
7.38794e-07
0.0839951
1.31379e-06
0.0839967
5.0739e-06
0.0839846
7.56692e-06
0.0839867
2.95522e-05
0.0839195
5.7739e-05
0.083862
0.000196423
0.0835386
0.000605453
0.0822446
0.00250876
0.0762662
0.0117795
0.0701228
0.0122561
0.0641361
0.012074
0.0578844
0.0125572
0.0512798
0.0132346
0.0441091
0.0142728
0.0363491
0.0154367
0.0280063
0.0165955
0.0190918
0.0177017
0.00967994
0.0187625
0.0197006
0.0840003
1.72678e-09
0.0840001
1.92795e-08
0.0840011
4.02969e-08
0.0839986
1.8532e-07
0.0840042
3.17955e-07
0.083991
1.09802e-06
0.0840185
2.2947e-06
0.083959
6.04771e-06
0.0840578
1.54387e-05
0.0838824
3.55636e-05
0.0840491
0.000101063
0.0837573
0.000277945
0.0835578
0.000929015
0.0822953
0.00369263
0.0764441
0.0175735
0.0702774
0.0184307
0.0643725
0.0179849
0.058204
0.0187271
0.0516499
0.0197895
0.044505
0.0214174
0.0367231
0.0232168
0.0283195
0.0249964
0.019296
0.0267219
0.0097565
0.0282987
0.0294536
0.0840002
3.01098e-09
0.0840006
2.09355e-08
0.0839994
6.48773e-08
0.0840025
2.07438e-07
0.0839953
4.76677e-07
0.0840119
1.40033e-06
0.0839746
2.90936e-06
0.0840493
8.76022e-06
0.0839038
1.79001e-05
0.084105
5.26613e-05
0.0838059
0.00012701
0.0839593
0.000378531
0.0834919
0.00121373
0.0824426
0.00479285
0.0767917
0.023135
0.0706583
0.0245703
0.0648651
0.0237849
0.0588119
0.0247815
0.0523573
0.0262453
0.0452975
0.028477
0.0375668
0.0309453
0.0291351
0.0334267
0.0199786
0.0358758
0.0101628
0.0381108
0.0396129
0.0840003
5.13298e-09
0.0840005
1.96622e-08
0.0839997
9.8708e-08
0.0840014
1.89269e-07
0.0839966
7.35875e-07
0.0840087
1.24946e-06
0.0839768
4.72074e-06
0.0840492
7.92415e-06
0.0838927
2.80654e-05
0.0841304
5.58901e-05
0.0837823
0.000170018
0.0839916
0.000455193
0.0834768
0.00150235
0.082583
0.00576801
0.077333
0.0282874
0.0712609
0.0306509
0.0655811
0.0294724
0.0596779
0.0306859
0.0533768
0.0325475
0.0464678
0.0353851
0.038831
0.0385788
0.030396
0.041858
0.0210651
0.0452015
0.0108424
0.0483305
0.0504519
0.0840003
4.84268e-09
0.0840004
2.76037e-08
0.0839998
1.0453e-07
0.0840012
2.72491e-07
0.0839984
7.67204e-07
0.0840019
1.85415e-06
0.083995
4.72623e-06
0.083999
1.17006e-05
0.0839826
2.90429e-05
0.083993
7.3764e-05
0.0839162
0.000193188
0.0838891
0.000547079
0.0835934
0.00175011
0.0827358
0.0066118
0.0782431
0.0326895
0.0722232
0.0366853
0.0666025
0.0351024
0.0608664
0.0364232
0.0547679
0.0386464
0.0480713
0.0420816
0.0405919
0.046058
0.0321892
0.05026
0.0226791
0.054708
0.0118933
0.0591113
0.0623403
0.0840003
3.75295e-09
0.0840003
3.85157e-08
0.0840003
9.55646e-08
0.0840002
3.74819e-07
0.0840004
7.23827e-07
0.0839974
2.44279e-06
0.0840046
4.69638e-06
0.0839793
1.48431e-05
0.0840234
3.05634e-05
0.0839326
8.87795e-05
0.084001
0.000214139
0.0838373
0.000624394
0.0836987
0.00195346
0.0830024
0.00723647
0.0799368
0.0356706
0.0737566
0.0428849
0.0681235
0.0407473
0.062529
0.0420192
0.0566555
0.0445209
0.0502352
0.0485009
0.0429763
0.0533138
0.0346653
0.0585675
0.0249999
0.0643687
0.0135446
0.0705611
0.0758791
0.0840003
6.56639e-09
0.0840005
3.07175e-08
0.0839998
1.35637e-07
0.0840014
3.01464e-07
0.083997
1.00465e-06
0.084008
2.10508e-06
0.0839808
6.18125e-06
0.0840441
1.37191e-05
0.0839078
3.71253e-05
0.0841307
8.95428e-05
0.0838021
0.000238394
0.0840712
0.000658674
0.0837134
0.00206325
0.0835758
0.00746898
0.0829515
0.0361718
0.0764822
0.049376
0.0704794
0.046763
0.0649019
0.0475989
0.059251
0.0501733
0.0531035
0.054648
0.0461516
0.0602624
0.0380512
0.0666637
0.0283978
0.0740169
0.0162638
0.0826895
0.0921367
0.0840003
4.89342e-09
0.0840001
3.83333e-08
0.084001
1.10064e-07
0.0839989
3.71266e-07
0.084004
8.31867e-07
0.0839924
2.41422e-06
0.0840202
5.47493e-06
0.0839609
1.46965e-05
0.084082
3.53418e-05
0.0838723
9.09625e-05
0.084163
0.000235221
0.0838497
0.000649882
0.0841531
0.00200166
0.0843923
0.00708334
0.0878902
0.0325927
0.0810873
0.0562082
0.0740945
0.0537717
0.068462
0.053235
0.0627871
0.0558494
0.0569475
0.0604878
0.0503258
0.0668823
0.0428857
0.0740998
0.0338396
0.0830577
0.0210312
0.0954901
0.11316
0.0840003
5.28371e-09
0.0840005
2.93763e-08
0.0839999
1.12762e-07
0.0840015
2.90416e-07
0.0839977
8.28885e-07
0.0840081
1.96906e-06
0.0839857
5.08553e-06
0.0840418
1.24582e-05
0.0839359
3.04543e-05
0.084147
7.81267e-05
0.0838979
0.000193722
0.0843365
0.000529649
0.0845044
0.00155449
0.0864446
0.00526632
0.0962568
0.0226411
0.088977
0.0635034
0.0794918
0.0632699
0.0738004
0.0589331
0.0678013
0.0618506
0.0621563
0.0661337
0.0562471
0.0727898
0.0498121
0.0805311
0.0414784
0.091385
0.0293508
0.107608
0.142498
0.0840003
4.71129e-09
0.0840002
2.68608e-08
0.0840007
9.60709e-08
0.0839996
2.60253e-07
0.0840023
7.11814e-07
0.083997
1.66849e-06
0.0840091
4.61033e-06
0.0839886
9.93949e-06
0.0840299
2.84982e-05
0.0839778
6.15833e-05
0.0841011
0.000172821
0.0840611
0.000429881
0.0844629
0.00127686
0.085495
0.00416178
0.0908499
0.0172443
0.0897959
0.0645293
0.0851516
0.0679002
0.0785408
0.06555
0.0732721
0.0671187
0.0682086
0.0711951
0.0636425
0.0773521
0.0587238
0.0854439
0.0543391
0.0957604
0.0538008
0.108131
0.11363
0.0826465
0.0840003
3.62617e-09
0.0840004
2.62774e-08
0.0840001
8.25643e-08
0.0840008
2.56685e-07
0.0839996
6.10341e-07
0.0840014
1.69144e-06
0.0839998
3.82271e-06
0.0839988
1.03293e-05
0.0840063
2.36028e-05
0.0839982
6.21702e-05
0.0840237
0.000150821
0.0840567
0.00040436
0.084169
0.0011406
0.0846064
0.00371065
0.0873074
0.0145183
0.0885437
0.063221
0.0859075
0.0705248
0.081173
0.0702785
0.0771531
0.0711352
0.0731997
0.0751455
0.0697174
0.0808291
0.0669462
0.0882054
0.0658436
0.0968488
0.0696237
0.104336
0.104706
0.0785096
0.0840003
4.13697e-09
0.0840004
2.18349e-08
0.084
8.74575e-08
0.0840011
2.1428e-07
0.0839986
6.41105e-07
0.0840047
1.47381e-06
0.0839918
3.92994e-06
0.0840224
9.39456e-06
0.083959
2.35157e-05
0.0840829
5.89444e-05
0.0838933
0.000146066
0.084158
0.000386987
0.0839614
0.00107766
0.0843934
0.00344809
0.0859466
0.0128617
0.0890117
0.0600916
0.0862468
0.0732855
0.0829328
0.073591
0.080101
0.0739607
0.0775049
0.077731
0.0752066
0.0831184
0.0740472
0.0893547
0.0755012
0.095376
0.0799244
0.0998825
0.0993842
0.085208
0.0840003
3.10051e-09
0.0840002
2.4538e-08
0.0840006
7.13005e-08
0.0839998
2.40164e-07
0.0840019
5.4091e-07
0.0839967
1.56898e-06
0.0840102
3.48656e-06
0.0839806
9.55336e-06
0.0840515
2.18912e-05
0.0839127
5.78416e-05
0.0841548
0.0001403
0.0838512
0.000372086
0.0842253
0.00102238
0.0842224
0.00319285
0.0856548
0.0115318
0.0922068
0.0534309
0.0892471
0.0762451
0.085867
0.0769671
0.0832777
0.0765496
0.0815465
0.079455
0.0804471
0.0841983
0.0806109
0.08917
0.0824811
0.0934855
0.086284
0.0960542
0.0949315
0.0906847
0.0840003
3.58969e-09
0.0840004
1.93052e-08
0.0840002
7.55886e-08
0.0840007
1.87498e-07
0.0839995
5.58906e-07
0.0840028
1.26251e-06
0.0839948
3.50525e-06
0.0840166
7.95397e-06
0.08397
2.12267e-05
0.0840811
5.01588e-05
0.0839004
0.000130669
0.0842153
0.000329633
0.0840271
0.000907874
0.0847223
0.00273143
0.086587
0.00951779
0.0994082
0.0405473
0.094759
0.080891
0.0906349
0.081088
0.087392
0.0797845
0.085667
0.081169
0.0851592
0.0846915
0.0857823
0.0885314
0.0877301
0.0914995
0.0909452
0.0928048
0.0911641
0.0946593
0.0840003
2.72813e-09
0.0840003
1.67617e-08
0.0840005
5.81147e-08
0.0839999
1.63308e-07
0.0840016
4.29137e-07
0.0839981
1.07169e-06
0.0840078
2.70291e-06
0.0839895
6.54444e-06
0.0840402
1.65589e-05
0.0839553
3.94991e-05
0.0841602
0.000101176
0.0839746
0.000248482
0.0845269
0.000666129
0.0850757
0.00189795
0.088521
0.00621402
0.104084
0.0248989
0.101286
0.083649
0.0976327
0.0847279
0.0925261
0.0848798
0.0902174
0.0834699
0.089624
0.0852564
0.0902148
0.087915
0.0919214
0.0897597
0.0945938
0.0900852
0.0881242
0.0975775
0.0840003
2.12164e-09
0.0840003
1.44413e-08
0.0840004
4.65128e-08
0.0840003
1.41146e-07
0.0840007
3.46318e-07
0.0839995
9.20955e-07
0.0840039
2.19202e-06
0.0839938
5.58068e-06
0.084025
1.34525e-05
0.0839658
3.34809e-05
0.0841163
8.25801e-05
0.0839393
0.000206558
0.0843441
0.000538405
0.0844543
0.0015066
0.0860722
0.00479854
0.0924985
0.018328
0.102155
0.0739223
0.0998508
0.0870131
0.0968028
0.087909
0.0942875
0.0859675
0.0935457
0.0859739
0.0940461
0.0873802
0.0954268
0.0883343
0.097538
0.0879127
0.0855879
0.0999959
0.0840003
1.8691e-09
0.0840003
1.19436e-08
0.0840003
4.08458e-08
0.0840005
1.16887e-07
0.0840001
3.02966e-07
0.084001
7.75533e-07
0.0840002
1.90253e-06
0.084001
4.76755e-06
0.0840053
1.16184e-05
0.0839962
2.90849e-05
0.0840366
7.14007e-05
0.0840098
0.000180638
0.0841456
0.000463435
0.0843121
0.00128088
0.0852074
0.00395133
0.089183
0.0142818
0.102157
0.0608594
0.101626
0.08753
0.0997061
0.089814
0.0975192
0.0881353
0.0968251
0.086636
0.0972521
0.0869098
0.0983932
0.0871394
0.100052
0.0861798
0.0835211
0.102027
0.0840003
1.56506e-09
0.0840003
9.88038e-09
0.0840003
3.40981e-08
0.0840005
9.64712e-08
0.0840001
2.53144e-07
0.0840011
6.41796e-07
0.0839999
1.58777e-06
0.0840023
3.97645e-06
0.0840029
9.69112e-06
0.0840034
2.42745e-05
0.0840255
5.95787e-05
0.0840343
0.00015029
0.0841359
0.000381824
0.0843722
0.0010315
0.085267
0.00305576
0.0890249
0.0104869
0.107983
0.0417945
0.105878
0.0896113
0.104501
0.0911733
0.101929
0.0906828
0.100307
0.0882218
0.10023
0.0869292
0.101059
0.0862373
0.102379
0.0847677
0.0819369
0.103857
0.0840003
1.14033e-09
0.0840003
7.93789e-09
0.0840003
2.57726e-08
0.0840005
7.74059e-08
0.0840002
1.91033e-07
0.0840011
5.09393e-07
0.0840001
1.1916e-06
0.0840027
3.12247e-06
0.0840033
7.17141e-06
0.0840066
1.88056e-05
0.0840299
4.34178e-05
0.0840474
0.000113097
0.0841803
0.000273177
0.0844629
0.000728202
0.0854891
0.00203054
0.0894227
0.00651947
0.106336
0.0248475
0.111501
0.084372
0.109124
0.0935145
0.106214
0.0935549
0.104002
0.0903823
0.103293
0.0875701
0.103665
0.0857692
0.104775
0.0835258
0.0808837
0.10568
0.0840003
9.64708e-10
0.0840003
5.98441e-09
0.0840003
2.0938e-08
0.0840004
5.84259e-08
0.0840002
1.5517e-07
0.0840011
3.87277e-07
0.0839992
9.65479e-07
0.0840056
2.37612e-06
0.0839935
5.826e-06
0.0840305
1.4379e-05
0.0839684
3.50463e-05
0.0841355
8.74915e-05
0.0839529
0.00021621
0.0844379
0.000559557
0.0845949
0.00152915
0.0866185
0.0047383
0.0939481
0.0173484
0.110719
0.0675082
0.111106
0.0930704
0.109493
0.0951093
0.107082
0.0927342
0.106253
0.0882962
0.106353
0.085548
0.106951
0.0827838
0.0799924
0.107671
0.0840003
7.61927e-10
0.0840003
4.65294e-09
0.0840003
1.65623e-08
0.0840004
4.5371e-08
0.0840002
1.22279e-07
0.0840008
3.02012e-07
0.0839997
7.62681e-07
0.0840039
1.86855e-06
0.0839955
4.59424e-06
0.0840227
1.14017e-05
0.0839753
2.76927e-05
0.0841119
6.97673e-05
0.0839389
0.000170687
0.0843731
0.000440718
0.0843618
0.0011721
0.0859084
0.00348073
0.0911046
0.0119537
0.113116
0.0453874
0.114001
0.0921129
0.11326
0.095778
0.111241
0.0946749
0.109249
0.0901786
0.108912
0.0857512
0.109027
0.0824977
0.0790556
0.10975
0.0840003
5.69136e-10
0.0840003
3.44231e-09
0.0840003
1.22774e-08
0.0840003
3.35704e-08
0.0840004
9.0926e-08
0.0840004
2.20539e-07
0.0840005
5.67105e-07
0.0840017
1.34622e-06
0.0839998
3.39956e-06
0.0840125
8.11662e-06
0.0839929
2.02633e-05
0.0840788
4.89207e-05
0.0839907
0.000122077
0.0843509
0.00030301
0.0844492
0.00078911
0.0859772
0.00220353
0.0907289
0.00699931
0.110245
0.0258598
0.118408
0.0838082
0.116756
0.0973319
0.114722
0.0966039
0.112388
0.0923908
0.111564
0.0864059
0.111317
0.0825218
0.0780043
0.112089
0.0840003
4.33576e-10
0.0840003
2.54465e-09
0.0840003
9.21263e-09
0.0840003
2.48065e-08
0.0840004
6.7904e-08
0.0840002
1.62943e-07
0.0840009
4.26166e-07
0.0840003
9.87482e-07
0.0840022
2.58355e-06
0.0840036
5.89694e-06
0.0840046
1.55199e-05
0.0840292
3.55207e-05
0.0840253
9.30886e-05
0.0841632
0.000221222
0.0842894
0.000581535
0.0850036
0.00155575
0.0871246
0.00477478
0.0958135
0.0171579
0.116809
0.0625966
0.117988
0.0960208
0.118334
0.09607
0.116341
0.0941919
0.114386
0.0881445
0.114182
0.0824441
0.076992
0.114858
0.0840003
2.88579e-10
0.0840003
1.90684e-09
0.0840003
6.36219e-09
0.0840003
1.86266e-08
0.0840004
4.71017e-08
0.0840003
1.22481e-07
0.0840008
2.92301e-07
0.0839998
7.47896e-07
0.0840041
1.75925e-06
0.0839968
4.47921e-06
0.0840233
1.05438e-05
0.0839834
2.67964e-05
0.0841193
6.37031e-05
0.0839747
0.000162027
0.0844622
0.000400167
0.0845639
0.00106407
0.0866024
0.00304709
0.0933883
0.0101147
0.118929
0.0368466
0.122411
0.0923533
0.119636
0.0986333
0.11889
0.094714
0.117695
0.0890868
0.117523
0.0822941
0.0759586
0.118214
0.0840003
2.04831e-10
0.0840003
1.37902e-09
0.0840003
4.47056e-09
0.0840003
1.34276e-08
0.0840004
3.3085e-08
0.0840003
8.69725e-08
0.0840008
2.08933e-07
0.0840001
5.20175e-07
0.0840027
1.27398e-06
0.0839996
3.06164e-06
0.0840113
7.69453e-06
0.0840024
1.8011e-05
0.0840488
4.63835e-05
0.0840482
0.000108033
0.0842492
0.00028106
0.0844756
0.000699393
0.0856894
0.00195348
0.0896319
0.00603851
0.104471
0.021891
0.122577
0.0739222
0.121754
0.0992192
0.120872
0.0952981
0.120708
0.0889318
0.121029
0.0815984
0.0744871
0.122191
0.0840003
1.4883e-10
0.0840003
9.39355e-10
0.0840003
3.24338e-09
0.0840003
9.17825e-09
0.0840003
2.39398e-08
0.0840004
6.04669e-08
0.0840003
1.48509e-07
0.0840009
3.68329e-07
0.0840003
8.90013e-07
0.0840026
2.20885e-06
0.0840031
5.29603e-06
0.084007
1.32059e-05
0.0840254
3.16865e-05
0.0840359
7.93996e-05
0.0841466
0.000194038
0.0843105
0.000496129
0.0849404
0.0013183
0.0870021
0.00391788
0.0951719
0.0136131
0.120539
0.0481287
0.12421
0.0951999
0.123662
0.0954555
0.123856
0.0883279
0.124825
0.0802447
0.072345
0.126568
0.0840003
9.92199e-11
0.0840003
6.36602e-10
0.0840003
2.19205e-09
0.0840003
6.21181e-09
0.0840003
1.61291e-08
0.0840004
4.08914e-08
0.0840003
9.91058e-08
0.0840008
2.48621e-07
0.0840002
5.87694e-07
0.0840025
1.48021e-06
0.0840017
3.45457e-06
0.0840081
8.78787e-06
0.0840171
2.03971e-05
0.0840385
5.1913e-05
0.0841144
0.000123034
0.0842804
0.000313894
0.0847704
0.000798482
0.086414
0.00225039
0.0927748
0.00716305
0.114549
0.0260401
0.125731
0.0834218
0.126778
0.0938091
0.127394
0.0872033
0.129259
0.0780137
0.0698345
0.131468
0.0840003
7.36778e-11
0.0840003
4.02478e-10
0.0840003
1.54446e-09
0.0840003
3.92381e-09
0.0840003
1.13298e-08
0.0840004
2.57451e-08
0.0840003
7.01174e-08
0.0840007
1.56376e-07
0.084
4.16231e-07
0.0840027
9.40861e-07
0.0839985
2.44128e-06
0.0840136
5.66426e-06
0.0839925
1.42813e-05
0.0840673
3.42679e-05
0.0839874
8.4494e-05
0.0842739
0.000210354
0.0842469
0.000534161
0.0852806
0.00146014
0.0876235
0.00447701
0.0971612
0.0163212
0.121601
0.0579492
0.127248
0.0873835
0.129974
0.0840836
0.132741
0.0748921
0.0673369
0.135009
0.0840003
4.1983e-11
0.0840003
2.71288e-10
0.0840003
9.27594e-10
0.0840003
2.65106e-09
0.0840003
6.7892e-09
0.0840003
1.73803e-08
0.0840004
4.1448e-08
0.0840003
1.04594e-07
0.0840009
2.43937e-07
0.0839998
6.15103e-07
0.0840045
1.42471e-06
0.083997
3.59852e-06
0.0840254
8.31775e-06
0.0839861
2.1023e-05
0.0841275
4.90758e-05
0.0840008
0.000124119
0.0845095
0.000303408
0.0847422
0.000806408
0.0870746
0.00232306
0.095016
0.00782554
0.121601
0.0300347
0.127497
0.0802699
0.132335
0.0790144
0.135061
0.071981
0.0653255
0.137108
0.0840003
2.6574e-11
0.0840003
1.7832e-10
0.0840003
5.77847e-10
0.0840003
1.72937e-09
0.0840003
4.28837e-09
0.0840003
1.09902e-08
0.0840004
2.6796e-08
0.0840002
6.44257e-08
0.0840008
1.59945e-07
0.0839999
3.69514e-07
0.084003
9.45089e-07
0.0839982
2.11059e-06
0.0840138
5.51704e-06
0.0839932
1.2145e-05
0.0840596
3.20304e-05
0.0840092
7.16124e-05
0.0842453
0.00018765
0.0843462
0.000465522
0.0854192
0.00131951
0.0886759
0.00420111
0.101286
0.0166816
0.117461
0.0623689
0.126985
0.0693566
0.133164
0.0657759
0.0620998
0.136618
0.0840003
1.67618e-11
0.0840003
1.19156e-10
0.0840003
3.78935e-10
0.0840003
1.15833e-09
0.0840003
2.78225e-09
0.0840003
7.5003e-09
0.0840003
1.70845e-08
0.0840003
4.47356e-08
0.0840005
1.0147e-07
0.084
2.59573e-07
0.0840018
6.01676e-07
0.0839975
1.49322e-06
0.0840112
3.56489e-06
0.0839827
8.58931e-06
0.0840619
2.11401e-05
0.0839265
5.03222e-05
0.0842059
0.000126984
0.0839877
0.000320784
0.0845862
0.000894523
0.0855011
0.00280111
0.0907632
0.0107438
0.104226
0.0464392
0.115957
0.0577297
0.125556
0.0564087
0.0570415
0.130894
0.0840003
1.36e-11
0.0840003
7.17336e-11
0.0840003
2.84425e-10
0.0840003
7.05032e-10
0.0840003
2.09029e-09
0.0840003
4.69776e-09
0.0840003
1.28336e-08
0.0840004
2.88662e-08
0.0840002
7.55504e-08
0.0840005
1.75483e-07
0.0840003
4.39016e-07
0.0839998
1.06497e-06
0.0840036
2.54231e-06
0.0839901
6.44535e-06
0.0840278
1.49116e-05
0.0839503
3.87975e-05
0.0840932
9.18298e-05
0.0839416
0.000243736
0.0842057
0.000661495
0.0845134
0.00207749
0.0868575
0.0076913
0.0944405
0.035953
0.105296
0.0473666
0.115211
0.0469646
0.0509454
0.121597
0.0840003
7.59875e-12
0.0840003
5.74251e-11
0.0840003
1.79398e-10
0.0840003
5.65927e-10
0.0840003
1.32605e-09
0.0840003
3.82227e-09
0.0840003
7.9547e-09
0.0840003
2.42544e-08
0.0840004
4.61525e-08
0.084
1.50354e-07
0.0840013
2.72804e-07
0.0839975
9.12351e-07
0.0840075
1.6641e-06
0.0839822
5.45649e-06
0.0840424
1.04682e-05
0.0839123
3.21766e-05
0.0841271
6.93508e-05
0.0838168
0.000196642
0.0841167
0.000520395
0.084014
0.00164214
0.0849817
0.00601797
0.0888427
0.0288416
0.0970023
0.0399912
0.104174
0.0403869
0.0429929
0.112342
0.0840003
7.46825e-12
0.0840003
3.67305e-11
0.0840003
1.48833e-10
0.0840003
3.53681e-10
0.0840003
1.09564e-09
0.0840003
2.28495e-09
0.0840003
7.11164e-09
0.0840003
1.35807e-08
0.0840003
4.48749e-08
0.0840004
8.16601e-08
0.0839998
2.76109e-07
0.0840017
5.06275e-07
0.0839949
1.6873e-06
0.084012
3.21021e-06
0.0839682
1.00896e-05
0.0840513
2.11324e-05
0.0838919
6.01386e-05
0.084067
0.000147108
0.083826
0.000419781
0.0839995
0.00129873
0.0843128
0.00478451
0.086774
0.0228763
0.092666
0.0349498
0.0981287
0.0355068
0.0367044
0.104707
0.0840003
3.4946e-12
0.0840003
3.19631e-11
0.0840003
8.29452e-11
0.0840003
3.16638e-10
0.0840003
6.02712e-10
0.0840003
2.15778e-09
0.0840003
3.58564e-09
0.0840003
1.35888e-08
0.0840005
2.15925e-08
0.0839998
8.26042e-08
0.0840016
1.33923e-07
0.0839973
4.97622e-07
0.0840077
8.58788e-07
0.0839836
2.96522e-06
0.0840383
5.71167e-06
0.0839201
1.75585e-05
0.0841134
3.92085e-05
0.0838076
0.000110036
0.0840963
0.000297312
0.0839176
0.000931722
0.0844498
0.00343984
0.0874171
0.0165972
0.0913554
0.0315561
0.0947708
0.0325305
0.0321236
0.0995836
0.0840003
4.01687e-12
0.0840003
1.96361e-11
0.0840003
8.16243e-11
0.0840003
1.90329e-10
0.0840003
6.07822e-10
0.0840003
1.25829e-09
0.0840003
3.88427e-09
0.0840003
7.75565e-09
0.0840003
2.31471e-08
0.0840005
4.87921e-08
0.0839996
1.34453e-07
0.084002
3.06139e-07
0.083995
7.85144e-07
0.0840119
1.91291e-06
0.0839695
4.65686e-06
0.0840575
1.20489e-05
0.0838845
2.87905e-05
0.0841157
7.71847e-05
0.0838433
0.00020565
0.0841527
0.000626509
0.0846355
0.00220054
0.0889176
0.0102382
0.0899794
0.0297549
0.091828
0.0305291
0.0286853
0.0954116
0.0840003
1.58621e-12
0.0840003
2.1604e-11
0.0840003
4.09693e-11
0.0840003
2.10491e-10
0.0840003
3.2425e-10
0.0840003
1.2659e-09
0.0840003
2.29966e-09
0.0840003
7.16701e-09
0.0840004
1.56689e-08
0.0840002
3.8861e-08
0.0840003
1.06951e-07
0.0840002
2.12474e-07
0.0839983
7.03044e-07
0.0840041
1.18716e-06
0.0839813
4.52267e-06
0.0840279
7.00434e-06
0.0839245
2.6979e-05
0.0840473
5.11442e-05
0.0838672
0.000165371
0.0839765
0.000461535
0.0840415
0.0016284
0.0854122
0.00739888
0.0877839
0.0258464
0.0892928
0.0286066
0.0257049
0.0927643
0.0840003
3.21064e-12
0.0840003
1.05864e-11
0.0840003
6.19562e-11
0.0840003
1.07127e-10
0.0840003
4.49939e-10
0.0840003
7.92506e-10
0.0840003
2.55425e-09
0.0840004
5.50835e-09
0.0840002
1.36287e-08
0.0840007
3.69799e-08
0.0839995
7.30189e-08
0.0840021
2.3834e-07
0.0839961
4.06777e-07
0.0840075
1.50964e-06
0.0839815
2.2735e-06
0.0840233
9.34368e-06
0.0839351
1.42661e-05
0.0840372
5.26109e-05
0.0838473
0.00011696
0.0839394
0.000377785
0.0839053
0.00126353
0.0843199
0.00573136
0.0860007
0.0225374
0.0876454
0.0264975
0.0226811
0.0915419
0.0840003
2.29529e-12
0.0840003
1.30542e-11
0.0840003
4.32855e-11
0.0840003
1.25007e-10
0.0840003
3.19034e-10
0.0840003
7.35065e-10
0.0840003
2.28335e-09
0.0840003
3.6905e-09
0.0840003
1.55901e-08
0.0840004
1.92103e-08
0.0839998
9.95373e-08
0.0840015
1.04042e-07
0.0839955
6.06922e-07
0.0840104
5.89321e-07
0.0839708
3.56053e-06
0.0840548
3.74627e-06
0.0838781
1.96754e-05
0.084116
3.09427e-05
0.083789
0.00011043
0.0839774
0.000292834
0.0837811
0.00102676
0.0838929
0.00462929
0.0852875
0.0196267
0.087961
0.0233835
0.0202851
0.0912492
0.0840003
2.37669e-12
0.0840003
7.23363e-12
0.0840003
4.72417e-11
0.0840003
6.91067e-11
0.0840003
3.2543e-10
0.0840003
5.50177e-10
0.0840003
1.79405e-09
0.0840003
3.9664e-09
0.0840003
9.60471e-09
0.0840001
2.70253e-08
0.0840007
5.14356e-08
0.0839985
1.78355e-07
0.0840042
2.89261e-07
0.0839879
1.12596e-06
0.0840257
1.53259e-06
0.0839345
6.91811e-06
0.0840992
9.50832e-06
0.0838114
3.79386e-05
0.0840937
8.04033e-05
0.083759
0.000261555
0.0837792
0.00086168
0.0837138
0.00387036
0.0848141
0.0171109
0.0881164
0.0196189
0.0180753
0.0910994
0.0840003
8.97084e-13
0.0840003
1.14989e-11
0.0840003
2.2447e-11
0.0840003
1.09339e-10
0.0840003
1.9037e-10
0.0840003
6.39387e-10
0.0840004
1.36525e-09
0.0840003
3.62198e-09
0.0840005
9.19871e-09
0.084
1.92434e-08
0.084001
6.10817e-08
0.0839985
1.08092e-07
0.0840038
3.85601e-07
0.0839913
6.18042e-07
0.0840131
2.44634e-06
0.0839642
3.29136e-06
0.084036
1.4351e-05
0.0838899
2.41713e-05
0.0840174
8.29724e-05
0.0838057
0.000220153
0.0836996
0.000762483
0.0836896
0.00330969
0.0843882
0.0149592
0.0881501
0.0158883
0.0157864
0.0907894
0.0840003
1.32066e-12
0.0840003
5.4426e-12
0.0840003
2.86609e-11
0.0840003
5.55065e-11
0.0840003
1.9868e-10
0.0840003
4.24478e-10
0.0840003
1.07819e-09
0.0840003
3.09207e-09
0.0840004
5.23532e-09
0.0840001
2.1856e-08
0.0840008
2.91813e-08
0.0839983
1.5157e-07
0.0840046
1.543e-07
0.083987
1.00095e-06
0.0840287
7.61972e-07
0.0839304
6.0639e-06
0.0841103
5.94783e-06
0.0837964
3.14941e-05
0.0841184
6.11961e-05
0.0837492
0.000208771
0.0837667
0.000667726
0.0838532
0.0028024
0.0846267
0.0126986
0.0874313
0.0132276
0.0132576
0.0902067
0.0840003
1.05109e-12
0.0840003
5.24932e-12
0.0840003
2.0216e-11
0.0840003
5.03653e-11
0.0840003
1.47809e-10
0.0840003
3.0468e-10
0.0840003
9.93048e-10
0.0840003
1.68288e-09
0.0840004
6.58189e-09
0.0840001
9.34176e-09
0.0840006
4.24328e-08
0.0839996
5.42021e-08
0.084
2.80764e-07
0.0839996
3.47437e-07
0.0839935
1.69333e-06
0.0839995
2.69026e-06
0.0839769
9.47984e-06
0.0839722
2.10415e-05
0.0839463
6.18358e-05
0.0838707
0.000182139
0.0838291
0.000596374
0.0840231
0.00233373
0.0846931
0.010569
0.0871277
0.0109158
0.0109009
0.0896252
0.0840003
-5.71492e-13
0.0840003
8.8951e-12
0.0840003
-3.01241e-12
0.0840003
8.69576e-11
0.0840003
-1.07938e-11
0.0840003
5.31766e-10
0.0840003
-2.72327e-11
0.0840003
2.94638e-09
0.0840005
1.29536e-09
0.084
1.58126e-08
0.0840011
1.80929e-08
0.0839985
7.65316e-08
0.0840041
1.69331e-07
0.0839912
3.9028e-07
0.0840151
1.43457e-06
0.0839624
1.96307e-06
0.0840448
9.69566e-06
0.0838882
1.3371e-05
0.0840464
5.54827e-05
0.083819
0.000142081
0.0839836
0.000502434
0.0840894
0.00188156
0.0847034
0.0086296
0.0868731
0.00880134
0.00870932
0.0891003
0.0840003
7.70501e-13
0.0840003
1.81486e-12
0.0840003
1.41184e-11
0.0840003
1.98818e-11
0.0840003
1.00938e-10
0.0840003
1.72532e-10
0.0840003
5.21379e-10
0.0840004
1.33483e-09
0.0840002
2.46898e-09
0.0840006
9.84244e-09
0.0839997
1.58198e-08
0.0840016
6.62687e-08
0.0839974
9.03494e-08
0.0840038
4.75931e-07
0.0839904
4.72023e-07
0.0840079
3.16358e-06
0.0839684
2.78969e-06
0.0840144
1.69798e-05
0.0839134
3.06286e-05
0.0839811
0.000110014
0.0839457
0.000353219
0.0841265
0.0014703
0.0847372
0.00684069
0.0866849
0.00683971
0.00667601
0.0886473
0.0840003
1.03359e-12
0.0840003
9.69155e-13
0.0840003
1.36575e-11
0.0840003
7.77733e-12
0.0840003
1.0496e-10
0.0840003
1.17094e-11
0.0840003
8.20418e-10
0.0840003
-2.38636e-10
0.0840002
5.71179e-09
0.0840006
-2.34608e-09
0.0839995
3.58638e-08
0.0840023
-1.25015e-08
0.083995
2.11981e-07
0.084013
-4.14564e-08
0.0839707
1.21072e-06
0.0840634
-1.09196e-07
0.0838764
6.34197e-06
0.0841559
5.21845e-06
0.083782
3.00805e-05
0.0840852
7.23017e-05
0.0838487
0.000257088
0.0841455
0.00107701
0.0848494
0.00510082
0.0865934
0.00500479
0.00480877
0.0882826
0.0840003
5.50577e-13
0.0840003
-2.12656e-13
0.0840003
1.03879e-11
0.0840003
3.8792e-13
0.0840003
6.63554e-11
0.0840003
3.69064e-11
0.0840003
3.49618e-10
0.0840003
3.15673e-10
0.0840003
1.67766e-09
0.0840001
3.18121e-09
0.0840007
7.27842e-09
0.0839987
2.81792e-08
0.0840039
3.51678e-08
0.0839896
2.03376e-07
0.0840238
2.14045e-07
0.0839442
1.39577e-06
0.0840954
1.52092e-06
0.08384
7.92323e-06
0.0841301
1.402e-05
0.0838186
5.25409e-05
0.0840117
0.000166375
0.084124
0.000709996
0.0849888
0.00338812
0.0865692
0.00326801
0.00309689
0.0879862
0.0840003
-1.01162e-12
0.0840003
3.1076e-12
0.0840003
-9.12634e-12
0.0840003
3.13198e-11
0.0840003
-5.90985e-11
0.0840003
2.55281e-10
0.0840003
-4.79607e-10
0.0840003
1.9786e-09
0.0840004
-3.37392e-09
0.084
1.29113e-08
0.084001
-2.07551e-08
0.0839982
7.64098e-08
0.0840054
-1.09251e-07
0.0839879
4.0171e-07
0.084029
-5.3415e-07
0.0839386
1.8839e-06
0.0841082
-1.41042e-06
0.0838238
7.53497e-06
0.0841514
3.44875e-06
0.0838052
2.84948e-05
0.0840213
8.39363e-05
0.0841441
0.000350993
0.0851087
0.00169847
0.0865593
0.00160736
0.00150707
0.0877474
0.0840003
0.0840003
0.0840003
0.0840003
0.0840003
0.0840003
0.0840003
0.0840003
0.0840003
0.0840005
0.0839997
0.0840016
0.0839961
0.0840099
0.0839753
0.0840523
0.0838952
0.0841331
0.083825
0.0840776
0.0838846
0.0842011
0.0852035
0.0865666
0.0876093
0.0391959
0.0434148
0.0146202
0.0244577
-0.00811692
0.0226872
-0.0172595
0.00914541
-0.0237145
0.00644749
-0.0268053
0.00309947
-0.0276626
0.00087553
-0.0287045
0.00106155
-0.029955
0.00127004
-0.0309111
0.000973576
-0.0314145
0.000494173
-0.0316
0.000167433
-0.0316144
-1.03152e-05
-0.0314849
-0.000158538
-0.0311605
-0.000355943
-0.0306382
-0.000552178
-0.0299209
-0.000742302
-0.0290075
-0.000931287
-0.0279757
-0.00104528
-0.0268468
-0.00114367
-0.025617
-0.00124089
-0.0242942
-0.00133392
-0.0228754
-0.00143353
-0.0213589
-0.001532
-0.0197517
-0.00163067
-0.0180514
-0.00172299
-0.0162297
-0.00184898
-0.0143197
-0.00193872
-0.0123509
-0.00199819
-0.0103465
-0.00203366
-0.00831366
-0.00206131
-0.00625048
-0.00209368
-0.00414829
-0.00213279
-0.00201413
-0.00216291
0.000220579
-0.00225692
0.00243076
-0.00223169
0.00456308
-0.0021489
0.00663174
-0.00208263
0.00865434
-0.00203399
0.0106274
-0.00198468
0.0125383
-0.00191852
0.0143812
-0.00184961
0.0161702
-0.00179195
0.0179422
-0.00176946
0.0197011
-0.00175344
0.0214111
-0.0016984
0.0230556
-0.00162741
0.0246367
-0.00156417
0.0261563
-0.00149927
0.0276256
-0.00144169
0.0290367
-0.00138149
0.0303978
-0.0013243
0.0317036
-0.00126716
0.0329555
-0.00121125
0.0341587
-0.00115615
0.0353064
-0.00110289
0.036405
-0.0010494
0.037456
-0.00099912
0.0384577
-0.000948408
0.0394127
-0.00090092
0.0403164
-0.000853233
0.0411786
-0.000808447
0.0419903
-0.000764198
0.0427612
-0.000721859
0.0434876
-0.00068084
0.0441702
-0.000641074
0.0448129
-0.000602693
0.0454124
-0.000565529
0.0459735
-0.000529471
0.0464948
-0.000494734
0.0469784
-0.000460958
0.0474244
-0.000428532
0.0478356
-0.000397057
0.0482112
-0.000366971
0.0485558
-0.000337849
0.0488684
-0.000310161
0.0491529
-0.000283355
0.0494107
-0.000257907
0.049642
-0.000233344
0.049852
-0.000209921
0.0500366
-0.000187488
0.0502041
-0.000166205
0.0503484
-0.000146017
0.0504777
-0.000126845
0.0505881
-0.000109074
0.0506839
-9.25901e-05
0.0507653
-7.73494e-05
0.050832
-6.329e-05
0.0508878
-5.09854e-05
0.0509312
-4.05263e-05
0.0509653
-3.12886e-05
0.0509889
-2.37785e-05
0.0510043
-1.81317e-05
0.0510118
-1.45911e-05
0.0510131
-1.3254e-05
0.0510091
-1.46033e-05
0.0510021
-1.92717e-05
0.0509957
-2.81639e-05
0.0509933
-4.24082e-05
-7.31947e-05
0.0575566
0.0643178
0.0408221
0.0410877
0.0321622
0.0312993
0.0188215
0.022517
0.00992517
0.0153489
0.00182099
0.0112131
-0.00529134
0.00801218
-0.0102979
0.00609608
-0.0133987
0.00439353
-0.0150201
0.00261058
-0.0157011
0.00117899
-0.0157792
0.000240353
-0.0155249
-0.000279606
-0.0151622
-0.000550663
-0.0147553
-0.000802716
-0.0141729
-0.00117251
-0.0133237
-0.0016256
-0.0122798
-0.00200479
-0.0111315
-0.00221877
-0.0098807
-0.00241928
-0.00853112
-0.0026189
-0.00707739
-0.00282025
-0.00551329
-0.00302801
-0.00384868
-0.00322279
-0.00209305
-0.00341615
-0.000217069
-0.0036312
0.00166939
-0.00377655
0.00358593
-0.00389748
0.00551838
-0.00397262
0.00748863
-0.00404427
0.00947888
-0.00409172
0.0114824
-0.00413588
0.0134685
-0.00415826
0.0154399
-0.0041728
0.0173325
-0.00418492
0.0192117
-0.00414331
0.0210958
-0.0040614
0.0229673
-0.00397549
0.0247997
-0.00388789
0.0265861
-0.0037907
0.0283338
-0.00368031
0.0300275
-0.00355716
0.0316618
-0.00343977
0.0332373
-0.00334962
0.0347779
-0.00329296
0.0362749
-0.0031898
0.0377219
-0.00306841
0.0391067
-0.00294062
0.0404407
-0.00281642
0.0417088