/*--------------------------------*- C++ -*----------------------------------*\
  =========                 |
  \\      /  F ield         | OpenFOAM: The Open Source CFD Toolbox
   \\    /   O peration     | Website:  https://openfoam.org
    \\  /    A nd           | Version:  13
     \\/     M anipulation  |
\*---------------------------------------------------------------------------*/
FoamFile
{
    format      ascii;
    class       volVectorField;
    location    "9.5";
    object      U;
}
// * * * * * * * * * * * * * * * * * * * * * * * * * * * * * * * * * * * * * //

dimensions      [0 1 -1 0 0 0 0];

internalField   nonuniform List<vector> 
5250
(
(2.99999 5.27579e-09 0)
(2.99998 1.04335e-07 0)
(2.99995 1.48657e-07 0)
(2.99988 9.09561e-07 0)
(2.9997 1.27409e-06 0)
(2.99927 4.99121e-06 0)
(2.99816 1.00754e-05 0)
(2.99551 2.90581e-05 0)
(2.98879 6.81419e-05 0)
(2.97196 0.000174581 0)
(2.92749 0.00043426 0)
(2.80307 0.00115235 0)
(2.43733 0.00319295 0)
(1.44489 0.00938997 0)
(0.630554 0.0217601 0)
(0.553824 0.0227681 0)
(0.573056 0.0237181 0)
(0.559995 0.0252885 0)
(0.504759 0.0270725 0)
(0.418303 0.0291801 0)
(0.337576 0.0317447 0)
(0.268976 0.0346807 0)
(0.198997 0.037785 0)
(0.119499 0.0414399 0)
(0.052551 0.0466822 0)
(2.99999 1.13441e-08 0)
(2.99998 2.54452e-07 0)
(2.99995 5.21611e-07 0)
(2.99988 2.40073e-06 0)
(2.9997 3.95991e-06 0)
(2.99927 1.66918e-05 0)
(2.99818 2.33503e-05 0)
(2.99556 0.000107434 0)
(2.98891 0.000159822 0)
(2.97226 0.000599725 0)
(2.9283 0.0012339 0)
(2.80535 0.00363329 0)
(2.44414 0.00976065 0)
(1.45966 0.0290215 0)
(0.63995 0.0658341 0)
(0.552845 0.0657572 0)
(0.572442 0.0657791 0)
(0.559863 0.0682063 0)
(0.504762 0.0711807 0)
(0.418532 0.0750577 0)
(0.33774 0.0795832 0)
(0.268492 0.0843534 0)
(0.19748 0.0887907 0)
(0.116634 0.0931586 0)
(0.0491822 0.0975518 0)
(2.99999 4.12567e-08 0)
(2.99998 4.04388e-07 0)
(2.99995 1.03363e-06 0)
(2.99988 3.98774e-06 0)
(2.99971 7.71466e-06 0)
(2.99928 2.6332e-05 0)
(2.99824 4.90024e-05 0)
(2.99562 0.000159408 0)
(2.9892 0.000320919 0)
(2.97286 0.000934071 0)
(2.92998 0.00219031 0)
(2.81027 0.00604064 0)
(2.45832 0.0167165 0)
(1.49271 0.0492622 0)
(0.661571 0.113442 0)
(0.552067 0.111264 0)
(0.573169 0.110203 0)
(0.562351 0.11472 0)
(0.508103 0.120362 0)
(0.422832 0.127908 0)
(0.342321 0.136265 0)
(0.272549 0.144937 0)
(0.200528 0.153218 0)
(0.118226 0.16084 0)
(0.048835 0.166642 0)
(2.99999 7.36709e-08 0)
(2.99998 5.75899e-07 0)
(2.99996 1.60491e-06 0)
(2.99989 5.66915e-06 0)
(2.99972 1.20673e-05 0)
(2.99931 3.59383e-05 0)
(2.99829 7.86616e-05 0)
(2.99579 0.000212372 0)
(2.98956 0.000493802 0)
(2.97382 0.00127064 0)
(2.93257 0.00316089 0)
(2.81744 0.00842046 0)
(2.48039 0.0235099 0)
(1.5433 0.0687798 0)
(0.694986 0.161804 0)
(0.550382 0.156147 0)
(0.575016 0.153518 0)
(0.567684 0.160457 0)
(0.514969 0.169033 0)
(0.431339 0.180541 0)
(0.351376 0.193079 0)
(0.281299 0.206189 0)
(0.208204 0.219067 0)
(0.123668 0.23073 0)
(0.0507099 0.238444 0)
(3 1.16209e-07 0)
(2.99998 6.04924e-07 0)
(2.99996 2.41046e-06 0)
(2.99989 5.89612e-06 0)
(2.99974 1.78802e-05 0)
(2.99934 3.94455e-05 0)
(2.99838 0.000112418 0)
(2.99597 0.000247273 0)
(2.99008 0.000675248 0)
(2.97508 0.00156756 0)
(2.93597 0.00414302 0)
(2.82715 0.0107254 0)
(2.50915 0.0301254 0)
(1.61269 0.0876893 0)
(0.739865 0.211853 0)
(0.547104 0.20068 0)
(0.577817 0.195839 0)
(0.575757 0.205249 0)
(0.525078 0.216758 0)
(0.443697 0.232252 0)
(0.364598 0.249231 0)
(0.294406 0.26728 0)
(0.220138 0.285501 0)
(0.132499 0.302228 0)
(0.0544407 0.312815 0)
(3 1.49178e-07 0)
(2.99999 6.94029e-07 0)
(2.99996 3.02699e-06 0)
(2.9999 6.77227e-06 0)
(2.99975 2.23453e-05 0)
(2.99939 4.57396e-05 0)
(2.99847 0.000140238 0)
(2.99625 0.000289384 0)
(2.99066 0.000841011 0)
(2.97671 0.00187453 0)
(2.94019 0.00508708 0)
(2.83914 0.0129884 0)
(2.54486 0.036577 0)
(1.70181 0.105966 0)
(0.797018 0.264158 0)
(0.542201 0.245666 0)
(0.582278 0.237712 0)
(0.58734 0.249503 0)
(0.539051 0.263932 0)
(0.460533 0.283623 0)
(0.382735 0.305633 0)
(0.312785 0.329632 0)
(0.237416 0.354697 0)
(0.145848 0.378653 0)
(0.0606531 0.394479 0)
(3 1.28866e-07 0)
(2.99999 9.85747e-07 0)
(2.99996 2.99764e-06 0)
(2.99991 9.66947e-06 0)
(2.99977 2.2366e-05 0)
(2.99944 6.41404e-05 0)
(2.99859 0.00014104 0)
(2.99655 0.000395008 0)
(2.9914 0.000882092 0)
(2.97862 0.00237205 0)
(2.94522 0.00573483 0)
(2.85345 0.0153802 0)
(2.58705 0.0424096 0)
(1.81217 0.123094 0)
(0.868354 0.317664 0)
(0.537976 0.291177 0)
(0.590003 0.27953 0)
(0.603749 0.293366 0)
(0.558027 0.310515 0)
(0.48302 0.334556 0)
(0.407128 0.362278 0)
(0.338029 0.393535 0)
(0.262077 0.427594 0)
(0.166159 0.462377 0)
(0.071067 0.488384 0)
(3 1.52421e-07 0)
(2.99999 1.03607e-06 0)
(2.99997 3.45894e-06 0)
(2.99992 1.01273e-05 0)
(2.99979 2.59026e-05 0)
(2.99948 6.81012e-05 0)
(2.99874 0.0001629 0)
(2.99687 0.00042626 0)
(2.9923 0.00100612 0)
(2.98075 0.00261119 0)
(2.95103 0.00643348 0)
(2.86977 0.0170604 0)
(2.63528 0.047009 0)
(1.94428 0.136372 0)
(0.956936 0.366029 0)
(0.540152 0.336042 0)
(0.604689 0.321637 0)
(0.62738 0.336472 0)
(0.583905 0.355978 0)
(0.512928 0.384645 0)
(0.439639 0.418915 0)
(0.372374 0.458971 0)
(0.297301 0.504703 0)
(0.198079 0.555759 0)
(0.089405 0.602593 0)
(3 1.71554e-07 0)
(2.99999 1.03767e-06 0)
(2.99997 3.69738e-06 0)
(2.99993 1.01427e-05 0)
(2.99982 2.76598e-05 0)
(2.99955 6.82332e-05 0)
(2.99889 0.000175651 0)
(2.99726 0.000428363 0)
(2.99322 0.00108789 0)
(2.98315 0.00267822 0)
(2.95726 0.0068425 0)
(2.88741 0.0178018 0)
(2.68717 0.049293 0)
(2.09389 0.143087 0)
(1.06592 0.40324 0)
(0.56031 0.384078 0)
(0.631193 0.37029 0)
(0.660795 0.381257 0)
(0.619423 0.401941 0)
(0.552845 0.434066 0)
(0.482832 0.475553 0)
(0.418693 0.524898 0)
(0.347701 0.584754 0)
(0.250756 0.661417 0)
(0.123984 0.751429 0)
(3 1.52046e-07 0)
(2.99999 1.01156e-06 0)
(2.99997 3.34049e-06 0)
(2.99994 9.91423e-06 0)
(2.99984 2.49257e-05 0)
(2.99961 6.57326e-05 0)
(2.99904 0.000158432 0)
(2.99763 0.000406826 0)
(2.99418 0.000981349 0)
(2.98555 0.00250084 0)
(2.96365 0.00618284 0)
(2.90525 0.0161714 0)
(2.74076 0.0439119 0)
(2.25727 0.126618 0)
(1.21362 0.372237 0)
(0.626041 0.41558 0)
(0.680274 0.422741 0)
(0.70836 0.426453 0)
(0.668779 0.449358 0)
(0.606147 0.483125 0)
(0.539582 0.531095 0)
(0.479929 0.58903 0)
(0.420815 0.667514 0)
(0.341435 0.786523 0)
(0.191145 0.993323 0)
(3 1.46312e-07 0)
(2.99999 8.31044e-07 0)
(2.99998 3.08319e-06 0)
(2.99994 8.11506e-06 0)
(2.99986 2.27388e-05 0)
(2.99966 5.35573e-05 0)
(2.99917 0.000142788 0)
(2.99794 0.000328509 0)
(2.99497 0.000862936 0)
(2.98748 0.00202081 0)
(2.96866 0.00521379 0)
(2.91887 0.0130086 0)
(2.77938 0.0350023 0)
(2.37137 0.0980734 0)
(1.35553 0.292486 0)
(0.683187 0.446922 0)
(0.709769 0.477731 0)
(0.740497 0.4766 0)
(0.716636 0.498274 0)
(0.66407 0.531698 0)
(0.606365 0.582137 0)
(0.558477 0.647675 0)
(0.528544 0.74168 0)
(0.527475 0.887454 0)
(0.562944 1.12925 0)
(3 1.24577e-07 0)
(2.99999 7.85982e-07 0)
(2.99998 2.64142e-06 0)
(2.99995 7.64131e-06 0)
(2.99988 1.94886e-05 0)
(2.99971 4.95766e-05 0)
(2.99927 0.000124011 0)
(2.99823 0.000298397 0)
(2.99559 0.000762263 0)
(2.98918 0.00180406 0)
(2.9728 0.00461852 0)
(2.93002 0.0114643 0)
(2.81089 0.0304841 0)
(2.46285 0.0845964 0)
(1.52563 0.249406 0)
(0.771924 0.497209 0)
(0.722033 0.525905 0)
(0.752809 0.525276 0)
(0.750904 0.5429 0)
(0.715921 0.576486 0)
(0.675269 0.626467 0)
(0.646238 0.696086 0)
(0.646884 0.794724 0)
(0.699738 0.932689 0)
(0.825605 1.1106 0)
(3 1.14289e-07 0)
(2.99999 7.14272e-07 0)
(2.99998 2.52231e-06 0)
(2.99996 6.97444e-06 0)
(2.9999 1.85823e-05 0)
(2.99975 4.6862e-05 0)
(2.99938 0.000115095 0)
(2.99847 0.000291606 0)
(2.99622 0.000696756 0)
(2.99069 0.00177468 0)
(2.97671 0.00429564 0)
(2.94036 0.0110182 0)
(2.84008 0.0286973 0)
(2.54861 0.0799542 0)
(1.72438 0.232393 0)
(0.894445 0.541927 0)
(0.73123 0.556709 0)
(0.76219 0.560231 0)
(0.778162 0.576164 0)
(0.762077 0.612264 0)
(0.740452 0.662698 0)
(0.733093 0.731168 0)
(0.755895 0.822027 0)
(0.827797 0.933256 0)
(0.966559 1.04224 0)
(3 1.07576e-07 0)
(2.99999 6.89967e-07 0)
(2.99999 2.36403e-06 0)
(2.99997 6.76673e-06 0)
(2.99991 1.76075e-05 0)
(2.99979 4.53228e-05 0)
(2.99948 0.000110517 0)
(2.99872 0.000282023 0)
(2.99683 0.000674881 0)
(2.99218 0.00172566 0)
(2.98049 0.00417862 0)
(2.95038 0.0107359 0)
(2.86814 0.027815 0)
(2.63147 0.0771405 0)
(1.94051 0.223248 0)
(1.04498 0.575881 0)
(0.750173 0.584186 0)
(0.77781 0.588194 0)
(0.806029 0.600719 0)
(0.807191 0.638145 0)
(0.801219 0.689234 0)
(0.810027 0.752864 0)
(0.846348 0.828841 0)
(0.921715 0.913224 0)
(1.05144 0.983599 0)
(3 1.0034e-07 0)
(3 6.5605e-07 0)
(2.99999 2.20467e-06 0)
(2.99997 6.42176e-06 0)
(2.99993 1.65358e-05 0)
(2.99983 4.25851e-05 0)
(2.99958 0.000105156 0)
(2.99895 0.000263466 0)
(2.99743 0.000647403 0)
(2.99361 0.00161739 0)
(2.98422 0.0040061 0)
(2.96006 0.0101393 0)
(2.89543 0.0263283 0)
(2.71167 0.0723254 0)
(2.16966 0.209237 0)
(1.23048 0.582555 0)
(0.80179 0.615889 0)
(0.811157 0.621928 0)
(0.841915 0.626574 0)
(0.855816 0.659059 0)
(0.859334 0.707097 0)
(0.876786 0.763717 0)
(0.919472 0.825942 0)
(0.993297 0.889652 0)
(1.10956 0.93963 0)
(3 9.38219e-08 0)
(3 5.38555e-07 0)
(2.99999 1.99579e-06 0)
(2.99998 5.2373e-06 0)
(2.99994 1.47511e-05 0)
(2.99986 3.48275e-05 0)
(2.99966 9.26736e-05 0)
(2.99917 0.000216037 0)
(2.99795 0.000563199 0)
(2.99498 0.00132878 0)
(2.9876 0.00341391 0)
(2.96899 0.00831479 0)
(2.92008 0.0216546 0)
(2.7846 0.0578613 0)
(2.39085 0.165445 0)
(1.46507 0.488763 0)
(0.902594 0.630392 0)
(0.866592 0.654108 0)
(0.887071 0.661119 0)
(0.908674 0.681883 0)
(0.91701 0.721224 0)
(0.936987 0.769112 0)
(0.980452 0.819704 0)
(1.05018 0.868327 0)
(1.15256 0.904947 0)
(3 7.20543e-08 0)
(3 4.62363e-07 0)
(2.99999 1.54518e-06 0)
(2.99998 4.50144e-06 0)
(2.99995 1.14248e-05 0)
(2.99989 2.94113e-05 0)
(2.99973 7.1998e-05 0)
(2.99934 0.000178543 0)
(2.99835 0.000440097 0)
(2.99599 0.00106812 0)
(2.99004 0.0026636 0)
(2.97527 0.00648432 0)
(2.93664 0.0164995 0)
(2.83052 0.0429448 0)
(2.52426 0.119061 0)
(1.69584 0.35409 0)
(1.00582 0.655836 0)
(0.905479 0.68758 0)
(0.92137 0.700221 0)
(0.949685 0.708172 0)
(0.967713 0.735613 0)
(0.990359 0.773521 0)
(1.0323 0.813576 0)
(1.09639 0.850326 0)
(1.18592 0.876658 0)
(3 5.93322e-08 0)
(3 3.9192e-07 0)
(2.99999 1.29692e-06 0)
(2.99999 3.82719e-06 0)
(2.99996 9.63844e-06 0)
(2.99991 2.51655e-05 0)
(2.99978 6.07502e-05 0)
(2.99948 0.000153463 0)
(2.9987 0.00037141 0)
(2.99683 0.000924716 0)
(2.99211 0.00226397 0)
(2.9805 0.00561397 0)
(2.95037 0.0141026 0)
(2.86868 0.0366514 0)
(2.63478 0.100687 0)
(1.96081 0.293494 0)
(1.16417 0.689233 0)
(0.937528 0.720235 0)
(0.945913 0.731599 0)
(0.978094 0.731731 0)
(1.00835 0.747649 0)
(1.03576 0.776646 0)
(1.07611 0.807832 0)
(1.13438 0.834925 0)
(1.21252 0.853223 0)
(3 5.11095e-08 0)
(3 3.24875e-07 0)
(3 1.11629e-06 0)
(2.99999 3.17747e-06 0)
(2.99997 8.28723e-06 0)
(2.99993 2.11222e-05 0)
(2.99983 5.20501e-05 0)
(2.9996 0.000130352 0)
(2.999 0.000317826 0)
(2.99757 0.000794226 0)
(2.99395 0.00194516 0)
(2.98513 0.0048609 0)
(2.96248 0.0121563 0)
(2.90235 0.0314869 0)
(2.73321 0.0856687 0)
(2.23592 0.24725 0)
(1.38083 0.666838 0)
(1.0027 0.742254 0)
(0.982866 0.752151 0)
(1.00702 0.751907 0)
(1.04421 0.758295 0)
(1.07641 0.77863 0)
(1.11431 0.80188 0)
(1.16644 0.820443 0)
(1.23412 0.831973 0)
(3 4.02038e-08 0)
(3 2.64772e-07 0)
(3 8.89224e-07 0)
(2.99999 2.58165e-06 0)
(2.99998 6.59448e-06 0)
(2.99995 1.70841e-05 0)
(2.99987 4.12544e-05 0)
(2.9997 0.000105313 0)
(2.99925 0.000250047 0)
(2.99819 0.00063783 0)
(2.9955 0.00152002 0)
(2.98901 0.00385448 0)
(2.97255 0.00941778 0)
(2.92991 0.0242327 0)
(2.8131 0.0642252 0)
(2.47587 0.182028 0)
(1.65535 0.533212 0)
(1.11213 0.745308 0)
(1.03467 0.767505 0)
(1.04495 0.774265 0)
(1.07977 0.773133 0)
(1.11399 0.782564 0)
(1.14831 0.796519 0)
(1.194 0.807548 0)
(1.25193 0.81132 0)
(3 3.12343e-08 0)
(3 2.06299e-07 0)
(3 6.9068e-07 0)
(2.99999 2.00656e-06 0)
(2.99998 5.11019e-06 0)
(2.99996 1.32302e-05 0)
(2.99991 3.18013e-05 0)
(2.99977 8.10145e-05 0)
(2.99944 0.000191189 0)
(2.99862 0.00048744 0)
(2.99663 0.00114808 0)
(2.99171 0.00291538 0)
(2.97945 0.0070041 0)
(2.94787 0.0178156 0)
(2.86248 0.0458361 0)
(2.61891 0.125896 0)
(1.939 0.372322 0)
(1.24809 0.749895 0)
(1.07448 0.788492 0)
(1.07484 0.798285 0)
(1.10559 0.792194 0)
(1.14323 0.789482 0)
(1.17711 0.793475 0)
(1.21689 0.797052 0)
(1.2647 0.79158 0)
(3 2.56619e-08 0)
(3 1.57937e-07 0)
(3 5.56236e-07 0)
(3 1.53851e-06 0)
(2.99999 4.1134e-06 0)
(2.99997 1.02201e-05 0)
(2.99993 2.56354e-05 0)
(2.99983 6.29436e-05 0)
(2.99959 0.000154655 0)
(2.99898 0.000382149 0)
(2.99752 0.000929912 0)
(2.99389 0.00232004 0)
(2.98495 0.00565778 0)
(2.96215 0.0142826 0)
(2.9017 0.0365416 0)
(2.73202 0.0992502 0)
(2.23609 0.287034 0)
(1.4551 0.725345 0)
(1.13307 0.809728 0)
(1.10788 0.816389 0)
(1.1279 0.810122 0)
(1.16521 0.798409 0)
(1.20025 0.7928 0)
(1.23418 0.786685 0)
(1.27139 0.770874 0)
(3 1.9787e-08 0)
(3 1.20107e-07 0)
(3 4.27622e-07 0)
(3 1.1684e-06 0)
(2.99999 3.15857e-06 0)
(2.99998 7.72958e-06 0)
(2.99995 1.96905e-05 0)
(2.99988 4.7551e-05 0)
(2.99971 0.000118305 0)
(2.99927 0.000288549 0)
(2.99824 0.000708309 0)
(2.99565 0.00174708 0)
(2.98941 0.00427647 0)
(2.9736 0.0106781 0)
(2.93291 0.0270058 0)
(2.82214 0.0718381 0)
(2.50297 0.203005 0)
(1.74182 0.580311 0)
(1.24066 0.805936 0)
(1.15347 0.824505 0)
(1.15725 0.823321 0)
(1.18638 0.806431 0)
(1.21883 0.78999 0)
(1.24541 0.771463 0)
(1.27186 0.744858 0)
(3 1.48961e-08 0)
(3 8.86678e-08 0)
(3 3.17385e-07 0)
(3 8.61807e-07 0)
(2.99999 2.34036e-06 0)
(2.99999 5.65402e-06 0)
(2.99996 1.46219e-05 0)
(2.99991 3.43652e-05 0)
(2.99979 8.79835e-05 0)
(2.99948 0.000205946 0)
(2.99874 0.000524934 0)
(2.99686 0.00123499 0)
(2.99239 0.00312662 0)
(2.98107 0.00751425 0)
(2.95238 0.0190256 0)
(2.87527 0.0488021 0)
(2.6573 0.133316 0)
(2.04646 0.392602 0)
(1.38318 0.795217 0)
(1.189 0.838971 0)
(1.17872 0.833983 0)
(1.19841 0.813349 0)
(1.22716 0.783457 0)
(1.2485 0.750774 0)
(1.26691 0.713161 0)
(3 1.07004e-08 0)
(3 6.58911e-08 0)
(3 2.3e-07 0)
(3 6.40895e-07 0)
(3 1.69632e-06 0)
(2.99999 4.21045e-06 0)
(2.99997 1.05971e-05 0)
(2.99994 2.56054e-05 0)
(2.99985 6.40809e-05 0)
(2.99963 0.000153124 0)
(2.9991 0.000384483 0)
(2.99782 0.000918369 0)
(2.99464 0.00230246 0)
(2.98683 0.00558275 0)
(2.96714 0.0139952 0)
(2.91564 0.0355976 0)
(2.7736 0.0955358 0)
(2.36082 0.275177 0)
(1.61773 0.706379 0)
(1.25456 0.83609 0)
(1.20453 0.835908 0)
(1.20915 0.811317 0)
(1.22762 0.772049 0)
(1.24444 0.726634 0)
(1.25768 0.67872 0)
(3 7.29822e-09 0)
(3 4.85439e-08 0)
(3 1.5947e-07 0)
(3 4.71403e-07 0)
(3 1.1784e-06 0)
(2.99999 3.07669e-06 0)
(2.99998 7.35855e-06 0)
(2.99996 1.86142e-05 0)
(2.99989 4.45005e-05 0)
(2.99974 0.00011065 0)
(2.99937 0.000267264 0)
(2.99846 0.000656203 0)
(2.99627 0.00160625 0)
(2.99081 0.00391796 0)
(2.97735 0.00972273 0)
(2.94266 0.0242928 0)
(2.84918 0.0637027 0)
(2.58317 0.176746 0)
(1.90393 0.509799 0)
(1.35535 0.814442 0)
(1.22335 0.833697 0)
(1.21085 0.798194 0)
(1.22089 0.75056 0)
(1.23321 0.695898 0)
(1.24509 0.641057 0)
(3 5.24087e-09 0)
(3 3.42777e-08 0)
(3 1.13644e-07 0)
(3 3.33051e-07 0)
(3 8.382e-07 0)
(2.99999 2.1696e-06 0)
(2.99999 5.25198e-06 0)
(2.99997 1.30682e-05 0)
(2.99993 3.17949e-05 0)
(2.99982 7.74743e-05 0)
(2.99956 0.00019083 0)
(2.99893 0.000458213 0)
(2.99735 0.00114427 0)
(2.99359 0.00273263 0)
(2.9841 0.00685829 0)
(2.96028 0.0167962 0)
(2.89698 0.0434123 0)
(2.72029 0.116818 0)
(2.2146 0.341211 0)
(1.51916 0.768932 0)
(1.23511 0.830411 0)
(1.19487 0.782591 0)
(1.20271 0.72008 0)
(1.21576 0.658335 0)
(1.22976 0.599075 0)
(3 3.66831e-09 0)
(3 2.32687e-08 0)
(3 8.00795e-08 0)
(3 2.25961e-07 0)
(3 5.89319e-07 0)
(3 1.48712e-06 0)
(2.99999 3.6399e-06 0)
(2.99998 9.05046e-06 0)
(2.99995 2.17134e-05 0)
(2.99987 5.41088e-05 0)
(2.99969 0.000128463 0)
(2.99926 0.000322357 0)
(2.99817 0.000762741 0)
(2.99557 0.00191513 0)
(2.98906 0.0045924 0)
(2.97301 0.0115003 0)
(2.93133 0.0288518 0)
(2.8185 0.0765068 0)
(2.49479 0.217261 0)
(1.76743 0.595444 0)
(1.27966 0.789399 0)
(1.17127 0.750708 0)
(1.1748 0.679781 0)
(1.19348 0.614027 0)
(1.21298 0.554395 0)
(3 2.55507e-09 0)
(3 1.53071e-08 0)
(3 5.48623e-08 0)
(3 1.48487e-07 0)
(3 4.02092e-07 0)
(3 9.7498e-07 0)
(2.99999 2.47562e-06 0)
(2.99998 5.9205e-06 0)
(2.99996 1.46771e-05 0)
(2.99991 3.53599e-05 0)
(2.99978 8.61192e-05 0)
(2.99946 0.000210723 0)
(2.99868 0.000505403 0)
(2.99678 0.00125052 0)
(2.99208 0.00299676 0)
(2.98045 0.00744698 0)
(2.95062 0.018342 0)
(2.87049 0.0474601 0)
(2.64422 0.128948 0)
(2.02348 0.378236 0)
(1.33641 0.748117 0)
(1.11573 0.714956 0)
(1.12209 0.636914 0)
(1.15716 0.567525 0)
(1.19252 0.512156 0)
(3 1.70221e-09 0)
(3 9.89644e-09 0)
(3 3.61611e-08 0)
(3 9.59436e-08 0)
(3 2.64381e-07 0)
(3 6.28736e-07 0)
(3 1.62763e-06 0)
(2.99999 3.80438e-06 0)
(2.99997 9.63714e-06 0)
(2.99993 2.26854e-05 0)
(2.99984 5.64755e-05 0)
(2.99961 0.000135028 0)
(2.99903 0.000330145 0)
(2.99765 0.000804478 0)
(2.99422 0.00194186 0)
(2.98578 0.00480259 0)
(2.96443 0.0117745 0)
(2.90834 0.0301456 0)
(2.7533 0.0807144 0)
(2.31041 0.234905 0)
(1.4737 0.604724 0)
(1.06668 0.646508 0)
(1.06078 0.587091 0)
(1.1138 0.527285 0)
(1.17302 0.481117 0)
(3 1.0039e-09 0)
(3 6.57223e-09 0)
(3 2.1863e-08 0)
(3 6.34862e-08 0)
(3 1.60207e-07 0)
(3 4.10129e-07 0)
(3 9.84872e-07 0)
(2.99999 2.43925e-06 0)
(2.99998 5.81651e-06 0)
(2.99995 1.41744e-05 0)
(2.99987 3.40278e-05 0)
(2.99969 8.18681e-05 0)
(2.99924 0.000197779 0)
(2.99812 0.000472627 0)
(2.99541 0.00114905 0)
(2.98863 0.00274428 0)
(2.97164 0.00673125 0)
(2.92715 0.0166148 0)
(2.80419 0.043124 0)
(2.45296 0.118475 0)
(1.5942 0.345945 0)
(1.00735 0.532412 0)
(0.968044 0.515958 0)
(1.04532 0.483308 0)
(1.1333 0.456105 0)
(3 6.37877e-10 0)
(3 4.35734e-09 0)
(3 1.39263e-08 0)
(3 4.20182e-08 0)
(3 1.02483e-07 0)
(3 2.68383e-07 0)
(3 6.35027e-07 0)
(2.99999 1.58212e-06 0)
(2.99998 3.7803e-06 0)
(2.99996 9.10592e-06 0)
(2.99989 2.23537e-05 0)
(2.99974 5.2057e-05 0)
(2.99936 0.000131089 0)
(2.99844 0.000298631 0)
(2.99611 0.000764066 0)
(2.99042 0.00173734 0)
(2.97594 0.00441137 0)
(2.93824 0.0105907 0)
(2.83374 0.0274637 0)
(2.53079 0.0736421 0)
(1.70706 0.211797 0)
(0.95958 0.447954 0)
(0.846478 0.440117 0)
(0.950456 0.427318 0)
(1.06866 0.427037 0)
(3 4.45699e-10 0)
(3 2.79803e-09 0)
(3 9.68934e-09 0)
(3 2.71243e-08 0)
(3 7.09882e-08 0)
(3 1.77523e-07 0)
(3 4.35733e-07 0)
(2.99999 1.07163e-06 0)
(2.99999 2.57965e-06 0)
(2.99996 6.33606e-06 0)
(2.99991 1.51715e-05 0)
(2.99978 3.72617e-05 0)
(2.99945 8.90306e-05 0)
(2.99865 0.000218768 0)
(2.99661 0.000524217 0)
(2.99167 0.00128666 0)
(2.979 0.00312268 0)
(2.94619 0.00778124 0)
(2.8555 0.0200071 0)
(2.59113 0.0544676 0)
(1.83407 0.155651 0)
(0.949927 0.386349 0)
(0.715729 0.361863 0)
(0.850904 0.358925 0)
(0.997481 0.385645 0)
(3 3.0374e-10 0)
(3 1.88681e-09 0)
(3 6.72808e-09 0)
(3 1.84635e-08 0)
(3 4.96493e-08 0)
(3 1.24017e-07 0)
(3 3.02655e-07 0)
(2.99999 7.7463e-07 0)
(2.99999 1.77691e-06 0)
(2.99997 4.75891e-06 0)
(2.99992 1.04175e-05 0)
(2.9998 2.89143e-05 0)
(2.99951 6.16174e-05 0)
(2.9988 0.000174069 0)
(2.997 0.000370949 0)
(2.99259 0.00103342 0)
(2.98135 0.0023173 0)
(2.95224 0.00615988 0)
(2.87216 0.0154787 0)
(2.63854 0.0428455 0)
(1.94884 0.122542 0)
(0.963957 0.331797 0)
(0.60063 0.294649 0)
(0.769528 0.299188 0)
(0.939394 0.339054 0)
(3 2.19513e-10 0)
(3 1.36561e-09 0)
(3 4.80102e-09 0)
(3 1.33113e-08 0)
(3 3.53895e-08 0)
(3 8.87924e-08 0)
(3 2.20401e-07 0)
(3 5.52149e-07 0)
(2.99999 1.33363e-06 0)
(2.99997 3.40524e-06 0)
(2.99993 8.0525e-06 0)
(2.99982 2.09136e-05 0)
(2.99957 4.9272e-05 0)
(2.99891 0.000128155 0)
(2.99733 0.000302333 0)
(2.99329 0.000784999 0)
(2.98327 0.00188337 0)
(2.95712 0.00487219 0)
(2.88586 0.0125496 0)
(2.67811 0.0348452 0)
(2.05526 0.101241 0)
(0.999149 0.290863 0)
(0.525553 0.252553 0)
(0.721048 0.261386 0)
(0.897553 0.295324 0)
(3 1.54411e-10 0)
(3 9.88864e-10 0)
(3 3.32663e-09 0)
(3 9.62882e-09 0)
(3 2.44082e-08 0)
(3 6.39124e-08 0)
(3 1.54164e-07 0)
(3 3.91248e-07 0)
(2.99999 9.61058e-07 0)
(2.99997 2.37442e-06 0)
(2.99993 5.95118e-06 0)
(2.99984 1.45551e-05 0)
(2.9996 3.70561e-05 0)
(2.99901 8.98243e-05 0)
(2.99755 0.000230233 0)
(2.9939 0.000561799 0)
(2.98475 0.00143599 0)
(2.96113 0.00362872 0)
(2.8971 0.00959911 0)
(2.71189 0.0267326 0)
(2.15466 0.0797814 0)
(1.05091 0.242223 0)
(0.490966 0.221083 0)
(0.695662 0.234433 0)
(0.86779 0.257292 0)
(3 9.78394e-11 0)
(3 7.56444e-10 0)
(3 2.32307e-09 0)
(3 7.38552e-09 0)
(3 1.73101e-08 0)
(3 4.97771e-08 0)
(3 1.07499e-07 0)
(3 3.10871e-07 0)
(2.99999 6.48875e-07 0)
(2.99998 1.90887e-06 0)
(2.99994 3.90562e-06 0)
(2.99985 1.16441e-05 0)
(2.99963 2.38373e-05 0)
(2.99907 7.03613e-05 0)
(2.99772 0.000149326 0)
(2.99429 0.000425585 0)
(2.98583 0.000965667 0)
(2.96393 0.00262341 0)
(2.9052 0.00666876 0)
(2.73684 0.0186765 0)
(2.23425 0.0555626 0)
(1.10367 0.171811 0)
(0.47667 0.196012 0)
(0.678165 0.218228 0)
(0.841987 0.23033 0)
(3 8.55255e-11 0)
(3 5.91488e-10 0)
(3 1.81608e-09 0)
(3 5.76851e-09 0)
(3 1.37098e-08 0)
(3 3.63181e-08 0)
(3 9.07317e-08 0)
(3 2.13187e-07 0)
(2.99999 5.69246e-07 0)
(2.99998 1.24251e-06 0)
(2.99994 3.54674e-06 0)
(2.99986 7.3027e-06 0)
(2.99965 2.18274e-05 0)
(2.99912 4.38251e-05 0)
(2.99784 0.000133926 0)
(2.99458 0.000271384 0)
(2.98659 0.00080318 0)
(2.96588 0.00179911 0)
(2.91057 0.0049783 0)
(2.75275 0.0131742 0)
(2.2815 0.0385003 0)
(1.15616 0.116032 0)
(0.48313 0.182624 0)
(0.666919 0.209068 0)
(0.819307 0.206974 0)
(3 6.47575e-11 0)
(3 4.67624e-10 0)
(3 1.45572e-09 0)
(3 4.60785e-09 0)
(3 1.10249e-08 0)
(3 2.99439e-08 0)
(3 6.86369e-08 0)
(3 1.83727e-07 0)
(2.99999 4.10725e-07 0)
(2.99998 1.09177e-06 0)
(2.99994 2.51533e-06 0)
(2.99986 6.39829e-06 0)
(2.99966 1.5505e-05 0)
(2.99916 3.81578e-05 0)
(2.99791 9.62313e-05 0)
(2.99485 0.000232398 0)
(2.98711 0.000591022 0)
(2.96741 0.00146673 0)
(2.9147 0.00380466 0)
(2.7647 0.0103115 0)
(2.31862 0.0297919 0)
(1.21284 0.0905673 0)
(0.512014 0.167513 0)
(0.660322 0.197151 0)
(0.797654 0.182755 0)
(3 7.91733e-11 0)
(3 3.38345e-10 0)
(3 1.54799e-09 0)
(3 3.31656e-09 0)
(3 1.13538e-08 0)
(3 2.18792e-08 0)
(3 7.1375e-08 0)
(3 1.31146e-07 0)
(2.99999 4.2771e-07 0)
(2.99998 7.94887e-07 0)
(2.99995 2.48634e-06 0)
(2.99987 4.88066e-06 0)
(2.99968 1.43938e-05 0)
(2.99918 3.04089e-05 0)
(2.99801 8.2462e-05 0)
(2.995 0.000191192 0)
(2.98762 0.000484872 0)
(2.96856 0.00118496 0)
(2.91796 0.00308852 0)
(2.77439 0.00827751 0)
(2.34822 0.0239227 0)
(1.26459 0.0736916 0)
(0.548882 0.149023 0)
(0.656688 0.179658 0)
(0.777906 0.161366 0)
(3 6.82784e-11 0)
(3 2.88513e-10 0)
(3 1.3145e-09 0)
(3 2.74138e-09 0)
(3 9.30318e-09 0)
(3 1.79257e-08 0)
(3 5.8143e-08 0)
(3 1.04457e-07 0)
(2.99999 3.56275e-07 0)
(2.99998 6.20345e-07 0)
(2.99995 2.10766e-06 0)
(2.99987 3.83882e-06 0)
(2.99968 1.23104e-05 0)
(2.99922 2.40726e-05 0)
(2.99804 7.04914e-05 0)
(2.99519 0.000152581 0)
(2.98793 0.000414683 0)
(2.96959 0.000973295 0)
(2.92058 0.00259491 0)
(2.7822 0.00687626 0)
(2.37283 0.0199561 0)
(1.31151 0.061882 0)
(0.586478 0.132476 0)
(0.655575 0.156032 0)
(0.762996 0.14293 0)
(3 4.60187e-11 0)
(3 2.722e-10 0)
(3 1.00876e-09 0)
(3 2.58938e-09 0)
(3 7.47825e-09 0)
(3 1.74944e-08 0)
(3 4.5799e-08 0)
(3 1.1115e-07 0)
(2.99999 2.72387e-07 0)
(2.99998 6.74607e-07 0)
(2.99995 1.61893e-06 0)
(2.99988 4.07321e-06 0)
(2.99969 9.513e-06 0)
(2.99923 2.43718e-05 0)
(2.99811 5.6633e-05 0)
(2.99528 0.000145783 0)
(2.9883 0.000346643 0)
(2.97038 0.000888022 0)
(2.92284 0.00223889 0)
(2.78894 0.0060319 0)
(2.39381 0.0173754 0)
(1.35495 0.0533491 0)
(0.620069 0.117934 0)
(0.654804 0.129339 0)
(0.753277 0.125207 0)
(3 2.94895e-11 0)
(3 2.39376e-10 0)
(3 7.11697e-10 0)
(3 2.34271e-09 0)
(3 5.51733e-09 0)
(3 1.5254e-08 0)
(3 3.40258e-08 0)
(3 9.5598e-08 0)
(2.99999 2.00212e-07 0)
(2.99998 5.82222e-07 0)
(2.99995 1.2031e-06 0)
(2.99988 3.5749e-06 0)
(2.9997 7.11758e-06 0)
(2.99926 2.20146e-05 0)
(2.99815 4.51215e-05 0)
(2.99543 0.000131889 0)
(2.98855 0.000294575 0)
(2.97116 0.000796588 0)
(2.92486 0.00198212 0)
(2.79481 0.0054005 0)
(2.41246 0.0154328 0)
(1.39572 0.0461633 0)
(0.647628 0.103438 0)
(0.652904 0.106202 0)
(0.747885 0.10751 0)
(3 2.94362e-11 0)
(3 1.57579e-10 0)
(3 6.77611e-10 0)
(3 1.55622e-09 0)
(3 4.82371e-09 0)
(3 1.0837e-08 0)
(3 2.69982e-08 0)
(3 7.07988e-08 0)
(2.99999 1.48441e-07 0)
(2.99998 4.66425e-07 0)
(2.99995 8.36688e-07 0)
(2.99988 3.08726e-06 0)
(2.99971 5.06942e-06 0)
(2.99926 2.00794e-05 0)
(2.9982 3.24931e-05 0)
(2.99549 0.000128097 0)
(2.98885 0.000223763 0)
(2.97178 0.000754835 0)
(2.9267 0.0017044 0)
(2.80014 0.00495504 0)
(2.42842 0.013746 0)
(1.43205 0.0394152 0)
(0.670821 0.0883493 0)
(0.650525 0.0881605 0)
(0.743588 0.0898929 0)
(3 8.65458e-12 0)
(3 1.90292e-10 0)
(3 2.32708e-10 0)
(3 1.83185e-09 0)
(3 1.85999e-09 0)
(3 1.09841e-08 0)
(3 1.53403e-08 0)
(3 6.00391e-08 0)
(2.99999 1.22567e-07 0)
(2.99998 3.15446e-07 0)
(2.99995 9.28505e-07 0)
(2.99988 1.66373e-06 0)
(2.99971 6.8495e-06 0)
(2.99928 8.73954e-06 0)
(2.99824 4.69895e-05 0)
(2.99559 5.58334e-05 0)
(2.98907 0.000283016 0)
(2.9724 0.000480477 0)
(2.92838 0.00163172 0)
(2.80495 0.00412628 0)
(2.44207 0.0119872 0)
(1.46258 0.032837 0)
(0.690252 0.0738951 0)
(0.648185 0.0720388 0)
(0.73983 0.0730139 0)
(3 -6.52691e-12 0)
(3 1.59936e-10 0)
(3 3.06645e-11 0)
(3 1.59462e-09 0)
(3 4.86672e-10 0)
(3 1.04262e-08 0)
(3 4.22234e-09 0)
(3 6.28086e-08 0)
(2.99999 3.77919e-08 0)
(2.99998 3.60202e-07 0)
(2.99995 3.5678e-07 0)
(2.99989 1.94282e-06 0)
(2.99971 3.0769e-06 0)
(2.9993 1.0812e-05 0)
(2.99824 2.44988e-05 0)
(2.99569 6.13205e-05 0)
(2.98921 0.000178857 0)
(2.97291 0.000413277 0)
(2.92979 0.00117494 0)
(2.80884 0.00319895 0)
(2.45365 0.00924442 0)
(1.48755 0.0263079 0)
(0.706701 0.0602082 0)
(0.646188 0.0571502 0)
(0.736529 0.0572529 0)
(3 2.58294e-11 0)
(3 2.33356e-11 0)
(3 4.09649e-10 0)
(3 2.2815e-10 0)
(3 2.94865e-09 0)
(3 1.50504e-09 0)
(3 1.87888e-08 0)
(3 9.6967e-09 0)
(2.99999 1.12056e-07 0)
(2.99998 8.25169e-08 0)
(2.99995 6.47761e-07 0)
(2.99989 6.90629e-07 0)
(2.99972 3.66302e-06 0)
(2.9993 6.12829e-06 0)
(2.99828 1.95976e-05 0)
(2.99572 4.76796e-05 0)
(2.98937 0.000118216 0)
(2.97322 0.000315603 0)
(2.93077 0.000819495 0)
(2.81168 0.00228906 0)
(2.46244 0.00658891 0)
(1.50866 0.020117 0)
(0.720599 0.046908 0)
(0.64473 0.0432598 0)
(0.733784 0.0426633 0)
(3 2.92363e-11 0)
(3 -1.9037e-11 0)
(3 4.16198e-10 0)
(3 -1.97127e-10 0)
(3 2.89255e-09 0)
(3 -1.56771e-09 0)
(3 1.91897e-08 0)
(3 -1.19854e-08 0)
(2.99999 1.17181e-07 0)
(2.99998 -5.57405e-08 0)
(2.99995 6.53731e-07 0)
(2.99989 -6.68535e-08 0)
(2.99972 3.52516e-06 0)
(2.99931 1.29086e-06 0)
(2.99828 1.8849e-05 0)
(2.99577 2.05802e-05 0)
(2.98943 9.78669e-05 0)
(2.9735 0.000190746 0)
(2.93142 0.000598707 0)
(2.81383 0.00156809 0)
(2.46886 0.00462249 0)
(1.52534 0.0142704 0)
(0.731534 0.0335949 0)
(0.643772 0.0301746 0)
(0.731603 0.0293058 0)
(3 -1.26225e-11 0)
(3 5.70238e-11 0)
(3 -5.77178e-11 0)
(3 6.02023e-10 0)
(3 -3.44878e-10 0)
(3 5.08164e-09 0)
(3 -4.16411e-09 0)
(3 3.75719e-08 0)
(2.99999 -3.57398e-08 0)
(2.99998 2.49496e-07 0)
(2.99995 -2.46505e-07 0)
(2.99989 1.53655e-06 0)
(2.99972 -1.33401e-06 0)
(2.99931 8.40908e-06 0)
(2.99829 -4.63572e-06 0)
(2.99578 4.34062e-05 0)
(2.98951 3.04047e-06 0)
(2.97366 0.000200807 0)
(2.93188 0.000245884 0)
(2.81524 0.00102589 0)
(2.47315 0.00272518 0)
(1.53657 0.00854406 0)
(0.738979 0.0202259 0)
(0.643068 0.0177569 0)
(0.729951 0.017004 0)
(3 -1.98181e-11 0)
(3 5.70332e-11 0)
(3 -2.11666e-10 0)
(3 5.48837e-10 0)
(3 -1.38922e-09 0)
(3 4.17206e-09 0)
(3 -9.55498e-09 0)
(3 3.08803e-08 0)
(2.99999 -5.95633e-08 0)
(2.99998 1.93279e-07 0)
(2.99995 -3.29517e-07 0)
(2.99989 1.0826e-06 0)
(2.99972 -1.61101e-06 0)
(2.99931 5.20298e-06 0)
(2.99831 -6.57245e-06 0)
(2.99578 2.157e-05 0)
(2.98956 -1.42677e-05 0)
(2.9737 8.35465e-05 0)
(2.93214 4.60692e-05 0)
(2.81586 0.000350179 0)
(2.47555 0.00089663 0)
(1.54209 0.00283425 0)
(0.742891 0.00680175 0)
(0.642718 0.00590352 0)
(0.728982 0.00563422 0)
(1.11212 0.996377 0)
(0.983051 0.706009 0)
(0.0573759 0.417049 0)
(-0.42259 0.0169657 0)
(-0.554156 -0.0114565 0)
(-0.687998 -0.0242266 0)
(-0.734855 -0.0125724 0)
(-0.770676 0.00968768 0)
(-0.81771 0.0175946 0)
(-0.864157 0.0156184 0)
(-0.896917 0.0083438 0)
(-0.911339 0.00221187 0)
(-0.911992 -0.0021334 0)
(-0.905475 -0.00485648 0)
(-0.893553 -0.00541057 0)
(-0.873444 -0.00571409 0)
(-0.84492 -0.00686467 0)
(-0.809804 -0.00814552 0)
(-0.770983 -0.00893592 0)
(-0.729721 -0.00946392 0)
(-0.686809 -0.00994366 0)
(-0.642581 -0.0104001 0)
(-0.597134 -0.0109345 0)
(-0.550702 -0.0114934 0)
(-0.503389 -0.0120983 0)
(-0.455362 -0.0128705 0)
(-0.405863 -0.014501 0)
(-0.355609 -0.0159032 0)
(-0.305685 -0.0170259 0)
(-0.256277 -0.0179809 0)
(-0.207635 -0.0191246 0)
(-0.159672 -0.0202579 0)
(-0.112137 -0.0212463 0)
(-0.0651028 -0.0222524 0)
(-0.0203889 -0.0247164 0)
(0.0310679 -0.0247183 0)
(0.0774802 -0.0230886 0)
(0.12143 -0.021862 0)
(0.164375 -0.0212132 0)
(0.205647 -0.0206007 0)
(0.245613 -0.0198048 0)
(0.283356 -0.0189754 0)
(0.319414 -0.018397 0)
(0.356709 -0.0183908 0)
(0.394846 -0.0185474 0)
(0.431705 -0.0179997 0)
(0.467189 -0.0172114 0)
(0.501672 -0.0165586 0)
(0.535332 -0.0159589 0)
(0.568283 -0.015445 0)
(0.600489 -0.0149114 0)
(0.632044 -0.0143971 0)
(0.662938 -0.013885 0)
(0.693219 -0.0133808 0)
(0.722906 -0.0128846 0)
(0.752005 -0.0123999 0)
(0.780548 -0.0119154 0)
(0.808548 -0.0114526 0)
(0.836006 -0.0109888 0)
(0.862953 -0.0105469 0)
(0.889389 -0.0101066 0)
(0.915342 -0.00968582 0)
(0.940805 -0.00927026 0)
(0.965803 -0.00886748 0)
(0.990335 -0.00847404 0)
(1.01441 -0.00808944 0)
(1.03803 -0.00771429 0)
(1.0612 -0.00734744 0)
(1.08393 -0.00698808 0)
(1.10619 -0.00663707 0)
(1.12801 -0.00629255 0)
(1.14937 -0.00595655 0)
(1.17028 -0.00562717 0)
(1.19074 -0.00530711 0)
(1.21075 -0.00499456 0)
(1.23033 -0.00469222 0)
(1.24948 -0.00439748 0)
(1.26821 -0.0041127 0)
(1.28653 -0.00383627 0)
(1.30445 -0.00356786 0)
(1.32198 -0.00330739 0)
(1.33913 -0.00305383 0)
(1.35588 -0.00280833 0)
(1.37225 -0.00257062 0)
(1.38822 -0.00234642 0)
(1.40378 -0.00213224 0)