/*--------------------------------*- C++ -*----------------------------------*\
  =========                 |
  \\      /  F ield         | OpenFOAM: The Open Source CFD Toolbox
   \\    /   O peration     | Website:  https://openfoam.org
    \\  /    A nd           | Version:  13
     \\/     M anipulation  |
\*---------------------------------------------------------------------------*/
FoamFile
{
    format      ascii;
    class       volScalarField;
    location    "10";
    object      Ma;
}
// * * * * * * * * * * * * * * * * * * * * * * * * * * * * * * * * * * * * * //

dimensions      [];

internalField   nonuniform List<scalar> 
5250
(
2.99999
2.99996
2.99987
2.99968
2.99912
2.99797
2.99467
2.98738
2.96804
2.92206
2.8046
2.51901
1.89879
0.911183
0.369323
0.336923
0.347807
0.338516
0.304146
0.251462
0.203112
0.162298
0.121029
0.075494
0.0419303
2.99999
2.99996
2.99987
2.99967
2.99916
2.99794
2.99476
2.98758
2.96804
2.92344
2.806
2.52418
1.90792
0.922354
0.37696
0.338579
0.349537
0.3407
0.306871
0.25513
0.207949
0.168479
0.129422
0.0891385
0.0651994
2.99999
2.99996
2.99987
2.9997
2.99913
2.99808
2.99471
2.98804
2.96859
2.92518
2.81018
2.53411
1.92834
0.947328
0.394322
0.342769
0.354227
0.346838
0.314526
0.265247
0.220951
0.184893
0.150941
0.119267
0.103681
2.99999
2.99996
2.99988
2.9997
2.99918
2.9981
2.99495
2.98843
2.9695
2.92801
2.81617
2.54952
1.95855
0.986448
0.420504
0.348557
0.361374
0.35665
0.326696
0.281004
0.240623
0.209062
0.180904
0.156575
0.145729
2.99999
2.99996
2.99988
2.99971
2.99922
2.99819
2.99518
2.98896
2.97089
2.93137
2.82461
2.56975
1.99953
1.04081
0.455406
0.355454
0.370595
0.369692
0.342671
0.301284
0.265332
0.238641
0.216095
0.197653
0.190094
2.99999
2.99997
2.99989
2.99974
2.99925
2.99834
2.99539
2.98971
2.97263
2.93544
2.8353
2.59504
2.05183
1.11276
0.499459
0.363332
0.382012
0.38605
0.362314
0.325741
0.294598
0.273066
0.256272
0.243507
0.239451
3
2.99997
2.9999
2.99976
2.9993
2.99847
2.99575
2.99051
2.9747
2.94049
2.84792
2.62589
2.11597
1.20565
0.553428
0.373139
0.396397
0.406173
0.385767
0.354267
0.328285
0.312295
0.301762
0.295597
0.296959
3
2.99997
2.99991
2.99978
2.99938
2.99858
2.99627
2.99115
2.97761
2.94548
2.86352
2.66117
2.19313
1.32362
0.618339
0.38721
0.415188
0.430705
0.413321
0.386915
0.36635
0.35657
0.353469
0.356245
0.368217
3
2.99998
2.99992
2.99981
2.99944
2.99877
2.99663
2.99234
2.97992
2.9524
2.87911
2.70201
2.28153
1.46919
0.694875
0.410926
0.442271
0.461439
0.446383
0.424624
0.40953
0.406091
0.412006
0.429272
0.463812
3
2.99998
2.99994
2.99982
2.99956
2.99886
2.99722
2.99316
2.98297
2.95858
2.89656
2.74419
2.37882
1.64415
0.783689
0.451666
0.482359
0.4999
0.487025
0.468649
0.45829
0.460858
0.48018
0.524641
0.626388
3
2.99999
2.99994
2.99986
2.99959
2.99907
2.99753
2.99423
2.98526
2.96449
2.91129
2.78105
2.46474
1.80413
0.875233
0.495734
0.521708
0.537508
0.530686
0.516427
0.510509
0.520763
0.557699
0.639071
0.798502
3
2.99999
2.99995
2.99987
2.99966
2.99917
2.99792
2.99485
2.98751
2.96866
2.92381
2.80915
2.5317
1.92971
0.985633
0.554383
0.549136
0.563876
0.567633
0.561515
0.562429
0.581538
0.631929
0.729008
0.885547
3
2.99999
2.99996
2.9999
2.9997
2.99932
2.99814
2.99575
2.98892
2.97369
2.93359
2.83683
2.59438
2.05645
1.14009
0.635998
0.56644
0.583283
0.59609
0.600437
0.610133
0.637638
0.692915
0.784112
0.911391
3
2.99999
2.99997
2.99991
2.99975
2.99942
2.99844
2.9964
2.9907
2.97774
2.94416
2.86252
2.65744
2.18814
1.32951
0.733315
0.584223
0.600497
0.619835
0.634162
0.65196
0.684319
0.738277
0.817659
0.922496
3
3
2.99998
2.99992
2.99982
2.99948
2.99883
2.99684
2.99275
2.9812
2.95522
2.88693
2.72145
2.32732
1.5563
0.850567
0.61788
0.627865
0.646967
0.666908
0.688257
0.72162
0.771768
0.840797
0.928917
3.00001
3
2.99998
2.99994
2.99984
2.99961
2.99901
2.99763
2.99394
2.98582
2.96364
2.91322
2.782
2.47402
1.82917
0.987193
0.675536
0.669895
0.683582
0.703212
0.72342
0.753564
0.798308
0.857798
0.932436
3.00001
3
2.99999
2.99995
2.99989
2.99967
2.99926
2.99798
2.99542
2.98803
2.97181
2.92872
2.82593
2.57006
2.01407
1.12784
0.736419
0.704252
0.718198
0.73603
0.755092
0.781803
0.820078
0.870567
0.93316
3.00001
3
2.99999
2.99997
2.9999
2.99975
2.99938
2.99845
2.99628
2.99051
2.97762
2.94288
2.86184
2.65421
2.18737
1.34677
0.839357
0.73224
0.742616
0.759304
0.779755
0.80418
0.837001
0.879614
0.931636
3.00001
3
3
2.99998
2.99993
2.99981
2.9995
2.99886
2.99694
2.99312
2.98162
2.95766
2.89108
2.73499
2.35846
1.61976
0.969113
0.770713
0.766211
0.778605
0.79941
0.822053
0.850058
0.886011
0.92707
3.00001
3
3
2.99998
2.99995
2.99986
2.99964
2.99912
2.99775
2.99479
2.98638
2.96853
2.91937
2.8059
2.52437
1.93277
1.13003
0.829652
0.797087
0.803781
0.819918
0.838972
0.861841
0.888833
0.918959
3.00001
3.00001
3
2.99999
2.99996
2.99989
2.99973
2.99932
2.99833
2.99595
2.98985
2.97575
2.93898
2.85179
2.63254
2.14645
1.31971
0.899641
0.820911
0.825049
0.837477
0.853607
0.870012
0.88708
0.907384
3.00001
3.00001
3
2.99999
2.99998
2.99992
2.99981
2.99947
2.99881
2.99685
2.99269
2.98131
2.95523
2.88803
2.7247
2.3401
1.59618
1.0195
0.853124
0.842801
0.849525
0.86116
0.870479
0.879224
0.892635
3.00001
3.00001
3
3
2.99998
2.99994
2.99986
2.99962
2.99915
2.99767
2.99489
2.98616
2.96872
2.91925
2.80653
2.52741
1.94158
1.18045
0.903451
0.863064
0.859996
0.862444
0.864997
0.868793
0.877959
3.00001
3.00001
3.00001
3
2.99999
2.99996
2.9999
2.99973
2.99936
2.99832
2.99617
2.98986
2.97687
2.94006
2.85707
2.64382
2.17374
1.37313
0.961827
0.870794
0.857659
0.854736
0.854511
0.856879
0.864922
3.00001
3.00001
3.00001
3
2.99999
2.99998
2.99992
2.99981
2.99951
2.99882
2.9971
2.99278
2.9827
2.9565
2.89488
2.7379
2.37453
1.6612
1.06663
0.878511
0.846654
0.841973
0.84073
0.843798
0.854062
3.00001
3.00001
3.00001
3
3
2.99998
2.99995
2.99987
2.99963
2.99919
2.99778
2.99506
2.98694
2.96973
2.92319
2.8143
2.5467
1.97884
1.20704
0.893874
0.831856
0.82475
0.822868
0.829329
0.845082
3.00001
3.00001
3.00001
3.00001
3
2.99999
2.99997
2.99989
2.99976
2.99933
2.99848
2.99602
2.99069
2.97639
2.94315
2.85817
2.6522
2.18571
1.38224
0.921136
0.800573
0.792474
0.797109
0.812712
0.837264
3.00001
3.00001
3.00001
3.00001
3
3
2.99997
2.99993
2.9998
2.99955
2.99874
2.99724
2.99248
2.98298
2.95573
2.89429
2.73469
2.36674
1.64715
0.984176
0.764281
0.751602
0.766154
0.793901
0.828471
3.00001
3.00001
3.00001
3.00001
3
3
2.99998
2.99995
2.99984
2.99965
2.99904
2.99781
2.99426
2.98653
2.96591
2.91754
2.79451
2.50203
1.88733
1.05509
0.724301
0.70171
0.729668
0.771186
0.816336
3.00001
3.00001
3.00001
3.00001
3
3
2.99999
2.99996
2.99988
2.99971
2.99921
2.99823
2.99515
2.98916
2.97111
2.93224
2.82704
2.57761
2.02407
1.13502
0.689639
0.63604
0.677136
0.734231
0.792746
3.00001
3.00001
3.00001
3.00001
3.00001
3
2.99999
2.99996
2.99991
2.99973
2.9994
2.99836
2.99623
2.9902
2.97656
2.94089
2.85438
2.63652
2.14301
1.27332
0.691855
0.560161
0.612951
0.688486
0.75817
3.00001
3.00001
3.00001
3.00001
3.00001
3
2.99999
2.99997
2.99992
2.99978
2.99948
2.9986
2.99682
2.99137
2.98041
2.94828
2.87609
2.6855
2.24913
1.42641
0.709252
0.488982
0.556827
0.648326
0.720543
3.00001
3.00001
3.00001
3.00001
3.00001
3
3
2.99998
2.99993
2.99982
2.99953
2.99885
2.99703
2.99307
2.98183
2.95721
2.89032
2.73028
2.34233
1.58497
0.741022
0.44435
0.525689
0.622373
0.688064
3.00001
3.00001
3.00001
3.00001
3.00001
3
3
2.99998
2.99994
2.99983
2.9996
2.99891
2.99757
2.9933
2.98498
2.96016
2.90533
2.75946
2.41711
1.71411
0.778244
0.416939
0.503959
0.596178
0.654973
3.00001
3.00001
3.00001
3.00001
3.00001
3
3
2.99998
2.99994
2.99986
2.9996
2.99911
2.9975
2.99451
2.98497
2.96555
2.91041
2.7816
2.45964
1.78717
0.815577
0.40297
0.483089
0.56197
0.61835
3.00001
3.00001
3.00001
3.00001
3.00001
3
3
2.99999
2.99995
2.99987
2.99964
2.99913
2.9978
2.99458
2.9867
2.96675
2.91826
2.79508
2.4955
1.85128
0.87443
0.42031
0.462827
0.524827
0.585065
3.00001
3.00001
3.00001
3.00001
3.00001
3
3
2.99999
2.99995
2.99988
2.99965
2.99922
2.99788
2.99508
2.98728
2.96937
2.92285
2.80872
2.52536
1.90915
0.941254
0.445553
0.442541
0.499559
0.561163
3.00001
3.00001
3.00001
3.00001
3.00001
3
3
2.99999
2.99996
2.99988
2.9997
2.9992
2.99817
2.99503
2.98873
2.97012
2.92917
2.81894
2.55433
1.96736
1.0064
0.471785
0.426619
0.481264
0.54376
3.00001
3.00001
3.00001
3.00001
3.00001
3.00001
3
2.99999
2.99996
2.99989
2.9997
2.99929
2.99818
2.99555
2.98901
2.97256
2.93249
2.83054
2.57917
2.01784
1.07243
0.497215
0.410548
0.466626
0.532427
3.00001
3.00001
3.00001
3.00001
3.00001
3.00001
3
2.99999
2.99996
2.99989
2.99973
2.99933
2.99829
2.9959
2.98938
2.97488
2.93528
2.84187
2.60163
2.0664
1.13814
0.520977
0.392921
0.454309
0.525355
3.00001
3.00001
3.00001
3.00001
3.00001
3.00001
3
2.99999
2.99996
2.99991
2.99973
2.9994
2.99832
2.99626
2.98988
2.97644
2.9391
2.85091
2.62432
2.1119
1.20341
0.542329
0.373352
0.443538
0.521016
3.00001
3.00001
3.00001
3.00001
3.00001
3.00001
3
2.99999
2.99997
2.99991
2.99977
2.99939
2.99853
2.9963
2.9908
2.97737
2.94328
2.85894
2.64583
2.15589
1.26787
0.561077
0.352695
0.433652
0.517652
3.00001
3.00001
3.00001
3.00001
3.00001
3.00001
3
2.99999
2.99997
2.99991
2.99979
2.9994
2.99869
2.99636
2.9917
2.97802
2.94761
2.86579
2.66669
2.19715
1.33097
0.577313
0.331828
0.425004
0.515623
3.00001
3.00001
3.00001
3.00001
3.00001
3.00001
3
2.99999
2.99997
2.99992
2.99979
2.99948
2.99865
2.99682
2.99161
2.98035
2.94878
2.87548
2.68329
2.23701
1.39241
0.591692
0.311582
0.417583
0.514426
3.00001
3.00001
3.00001
3.00001
3.00001
3.00001
3
3
2.99997
2.99993
2.99979
2.99953
2.99869
2.99704
2.99204
2.98132
2.95176
2.88179
2.7004
2.27308
1.45146
0.603964
0.29211
0.410887
0.512997
3.00001
3.00001
3.00001
3.00001
3.00001
3.00001
3
2.99999
2.99998
2.99993
2.99982
2.99951
2.99885
2.99699
2.99276
2.98167
2.95489
2.88664
2.71577
2.30585
1.50555
0.614638
0.275059
0.405408
0.511181
3.00001
3.00001
3.00001
3.00001
3.00001
3.00001
3
3
2.99998
2.99993
2.99983
2.99952
2.99892
2.997
2.99333
2.98179
2.95784
2.89011
2.72926
2.33371
1.55261
0.625258
0.262173
0.401369
0.509198
3.00001
3.00001
3.00001
3.00001
3.00001
3.00001
3
3
2.99998
2.99993
2.99983
2.99955
2.99889
2.99727
2.99306
2.98335
2.95743
2.89609
2.73666
2.35771
1.59079
0.636192
0.253023
0.398027
0.50707
3.00001
3.00001
3.00001
3.00001
3.00001
3.00001
3
3
2.99998
2.99994
2.99982
2.99958
2.99886
2.99742
2.99296
2.98406
2.95778
2.89903
2.74249
2.37395
1.6189
0.645314
0.246692
0.395143
0.505075
3.00001
3.00001
3.00001
3.00001
3.00001
3.00001
3
3
2.99998
2.99994
2.99983
2.99957
2.99891
2.99729
2.99343
2.98325
2.95973
2.89789
2.74719
2.38031
1.63294
0.65042
0.243684
0.393309
0.503705
0.9715
0.769787
0.264886
0.230446
0.29511
0.378562
0.40501
0.416472
0.429731
0.447938
0.461555
0.465567
0.46375
0.459787
0.454395
0.445701
0.432838
0.416233
0.396584
0.374557
0.350774
0.325597
0.299518
0.272719
0.244543
0.216039
0.187563
0.159313
0.13143
0.103849
0.0765751
0.0498952
0.0254924
0.0160801
0.0378692
0.0623576
0.0874122
0.11184
0.135434
0.158508
0.180098
0.201456
0.223845
0.246421
0.268087
0.289148
0.309603
0.329801
0.349566
0.368995
0.388093
0.406887
0.425312
0.44354
0.461358
0.479023
0.49631
0.513438
0.530207
0.546767
0.563084
0.579105
0.594968
0.610507
0.625885
0.640987
0.655884
0.670549
0.684989
0.699193
0.713177
0.72691
0.740427
0.75369
0.766743
0.779544
0.792134
0.804461
0.816575
0.828381
0.839979
0.851205
0.862189
0.872754
0.882972
0.892725
0.902019
0.910704
0.918808
0.926086
0.932513
0.937894
0.941959
0.944542
0.945933
0.946859
0.947249
0.946716
0.944875
0.94816
0.950683
0.831044
0.570731
0.428463
0.302016
0.167207
0.0562863
0.06743
0.126397
0.174651
0.200927
0.204057
0.195673
0.190142
0.184441
0.174707
0.161336
0.14567
0.127394
0.107401
0.0863641
0.0651264
0.0450915
0.0320113
0.0344167
0.0519792
0.0734739
0.096643
0.120157
0.1438
0.167144
0.19009
0.212569
0.234103
0.255086
0.275904
0.296832
0.317372
0.337641
0.357432
0.376383
0.394685
0.413771
0.433177
0.452055
0.47022
0.488021
0.505565
0.52276
0.539757
0.55642
0.572902
0.589066
0.605037
0.620748
0.636209
0.651499
0.66649
0.681356
0.695939
0.710372
0.724583
0.738596
0.752438
0.766062
0.779521
0.792772
0.805837
0.818708
0.831373
0.843861
0.856124
0.868228
0.880096
0.891819
0.903293
0.914629
0.925697
0.936609
0.947252
0.95767
0.96785
0.977697
0.987284
0.996491
1.0053
1.01373
1.02156
1.02889
1.03547
1.04123
1.04607
1.04965
1.05181
1.05289
1.05366
1.0539
1.0532
1.051
1.05391
0.962527
0.931457
0.828603
0.738402
0.643892
0.535954
0.446873
0.362489
0.293158
0.24283
0.204916
0.178625
0.154238
0.135132
0.135236
0.143397
0.153915
0.166465
0.181131
0.197123
0.214079
0.231815
0.250205
0.268827
0.287301
0.306112
0.325138
0.344236
0.363396
0.382398
0.401138
0.419597
0.437627
0.455156
0.472341
0.489247
0.506189
0.522822
0.539457
0.555637
0.571236
0.586251
0.601635
0.61764
0.633539
0.648793
0.663773
0.678419
0.693046
0.707321
0.721644
0.735518
0.749517
0.763006
0.776665
0.789808
0.803119
0.815949
0.82892
0.841453
0.854105
0.866335
0.878683
0.890611
0.902663
0.914306
0.926056
0.93743
0.948864
0.959968
0.971069
0.981892
0.992648
1.00318
1.0136
1.02384
1.0339
1.04384
1.05352
1.0631
1.0724
1.08153
1.0904
1.09896
1.10732
1.11525
1.12285
1.12994
1.13648
1.14238
1.14746
1.15173
1.15483
1.15653
1.15739
1.15801
1.15812
1.15726
1.15462
1.15714
0.986091
0.999888
0.967459
0.915553
0.854365
0.784954
0.714841
0.65207
0.600576
0.562109
0.534596
0.513206
0.499085
0.48952
0.484948
0.484043
0.484313
0.486527
0.490921
0.497421
0.505566
0.515174
0.52567
0.536966
0.548745
0.560984
0.573602
0.586374
0.599303
0.612164
0.624989
0.637582
0.650056
0.662273
0.67427
0.686297
0.698265
0.710403
0.722476
0.734548
0.746106
0.757337
0.768742
0.780943
0.793412
0.805479
0.817321
0.828941
0.840639
0.852144
0.863774
0.875168
0.88668
0.897959
0.909326
0.920495
0.931712
0.942774
0.953847
0.964793
0.975719
0.986526
0.997297
1.00793
1.01854
1.02897
1.03938
1.0496
1.0598
1.06978
1.07973
1.08947
1.09915
1.10866
1.11806
1.12733
1.13644
1.14547
1.15434
1.1631
1.17176
1.18015
1.18844
1.19643
1.2041
1.2115
1.21837
1.22491
1.23085
1.23612
1.24074
1.24428
1.24682
1.248
1.24858
1.24878
1.24853
1.24722
1.2437
1.2455
0.998352
1.03396
1.03552
1.01321
0.977808
0.933856
0.887857
0.845112
0.813018
0.789459
0.773652
0.761264
0.752643
0.747749
0.746924
0.748941
0.750437
0.75041
0.750609
0.752305
0.754984
0.758343
0.762433
0.766975
0.771885
0.777073
0.782579
0.788356
0.79439
0.800708
0.80713
0.813874
0.820591
0.827541
0.834554
0.841899
0.849391
0.857292
0.865385
0.873747
0.881814
0.889757
0.897914
0.906937
0.916542
0.925987
0.935342
0.944547
0.953902
0.963204
0.972704
0.982144
0.991753
1.00129
1.01096
1.02056
1.03027
1.0399
1.04964
1.05928
1.06903
1.07867
1.0884
1.09799
1.10766
1.11717
1.12672
1.13611
1.14548
1.15475
1.16391
1.173
1.18196
1.19084
1.19969
1.20845
1.21721
1.22583
1.23434
1.24271
1.25082
1.25886
1.26651
1.27408
1.28124
1.28813
1.29464
1.30063
1.3062
1.31097
1.31518
1.31826
1.32028
1.32109
1.3215
1.32153
1.32069
1.31886
1.31475
1.31585
0.999532
1.04424
1.06303
1.061
1.04432
1.01954
0.992053
0.967558
0.949826
0.939316
0.933829
0.931512
0.930549
0.93024
0.93064
0.93245
0.934408
0.934276
0.932168
0.930531
0.929627
0.929204
0.929122
0.929307
0.929698
0.930308
0.931218
0.932474
0.934111
0.936131
0.938619
0.941386
0.944653
0.94817
0.952128
0.956396
0.961131
0.966239
0.971901
0.977753
0.983685
0.989363
0.995552
1.00235
1.01017
1.01784
1.02584
1.03356
1.04165
1.04962
1.05792
1.06616
1.07463
1.08309
1.09168
1.10029
1.10898
1.11768
1.12647
1.13521
1.14407
1.15285
1.16171
1.17052
1.17933
1.18814
1.19688
1.20563
1.21432
1.22296
1.23161
1.24013
1.24879
1.25731
1.26587
1.27425
1.28252
1.2907
1.29866
1.30656
1.31417
1.32169
1.32888
1.33589
1.34257
1.3489
1.35488
1.36029
1.36524
1.36946
1.37286
1.37543
1.37649
1.37691
1.37701
1.37668
1.37498
1.37251
1.36777
1.36831
0.993619
1.0398
1.0668
1.07619
1.0731
1.06241
1.04976
1.03938
1.034
1.03366
1.03704
1.04191
1.04692
1.05086
1.05316
1.05496
1.05758
1.05916
1.0582
1.05524
1.05241
1.04998
1.04793
1.0461
1.04444
1.04296
1.04167
1.04074
1.04012
1.03993
1.04016
1.04082
1.04198
1.04349
1.04554
1.04788
1.05082
1.05406
1.05802
1.06215
1.06646
1.07059
1.07522
1.08047
1.08667
1.09303
1.0997
1.10637
1.11329
1.12027
1.12751
1.13486
1.14241
1.1501
1.1579
1.16586
1.17385
1.182
1.19014
1.1984
1.20668
1.21499
1.22338
1.23168
1.24011
1.24839
1.25677
1.26503
1.27334
1.28164
1.28995
1.29827
1.30645
1.31462
1.32267
1.33061
1.33853
1.34619
1.35389
1.36125
1.3686
1.37561
1.38248
1.38903
1.39528
1.40122
1.40661
1.41164
1.4159
1.41962
1.42237
1.42412
1.42478
1.42499
1.42493
1.42408
1.42165
1.41865
1.41372
1.41395
0.983314
1.0257
1.05505
1.07095
1.0768
1.07723
1.07635
1.07735
1.08178
1.08978
1.09965
1.11032
1.1198
1.12775
1.1329
1.13601
1.13831
1.14088
1.1419
1.14048
1.13714
1.1337
1.13064
1.12774
1.12506
1.12237
1.11986
1.11746
1.11535
1.11357
1.11217
1.11123
1.11074
1.11071
1.11119
1.11211
1.11355
1.11546
1.11805
1.12099
1.1241
1.12722
1.1308
1.1351
1.14022
1.14575
1.15159
1.15765
1.16387
1.17031
1.17688
1.1837
1.19063
1.19779
1.20506
1.21248
1.22004
1.22766
1.23547
1.24329
1.25128
1.25929
1.26739
1.27558
1.28375
1.29205
1.30029
1.30867
1.31697
1.32525
1.33348
1.34157
1.3497
1.35759
1.36554
1.37324
1.38095
1.38845
1.39584
1.40309
1.41007
1.41696
1.42343
1.42977
1.43563
1.44116
1.44618
1.45058
1.45442
1.45733
1.45949
1.46031
1.46059
1.46061
1.46007
1.45813
1.45503
1.45114
1.44624
1.44581
0.968951
1.00565
1.03366
1.05316
1.06593
1.07514
1.08392
1.09384
1.10603
1.11983
1.13468
1.14895
1.16203
1.17272
1.18095
1.18627
1.18981
1.19241
1.19502
1.19613
1.19504
1.19204
1.1888
1.18558
1.18241
1.17935
1.17629
1.17335
1.17053
1.16801
1.16577
1.16397
1.16263
1.16177
1.16142
1.16155
1.1622
1.16335
1.16517
1.16737
1.16973
1.17217
1.17503
1.1786
1.18285
1.18764
1.19275
1.19823
1.20392
1.20986
1.216
1.22232
1.22886
1.23556
1.24244
1.24949
1.25664
1.26399
1.27138
1.27894
1.28655
1.29425
1.30206
1.30983
1.31778
1.32563
1.33363
1.34147
1.34938
1.3572
1.36502
1.37283
1.38054
1.38826
1.39582
1.40337
1.41073
1.41801
1.42512
1.43203
1.4388
1.4452
1.45146
1.45724
1.46274
1.46769
1.47211
1.47592
1.47891
1.48116
1.48224
1.48264
1.48267
1.48231
1.48094
1.47809
1.47442
1.47063
1.46596
1.46575
0.950964
0.981504
1.00774
1.02939
1.04764
1.06415
1.08034
1.09712
1.11463
1.1327
1.15043
1.16743
1.18252
1.19578
1.20623
1.21435
1.21991
1.22431
1.22728
1.23013
1.23161
1.23138
1.22924
1.22641
1.22329
1.22023
1.2171
1.21409
1.21107
1.2083
1.20572
1.20349
1.2017
1.20032
1.19946
1.19904
1.19916
1.1998
1.20106
1.20276
1.20463
1.20659
1.20905
1.21214
1.21592
1.22022
1.2249
1.23004
1.2354
1.24109
1.24697
1.25304
1.25937
1.26578
1.27252
1.27927
1.28634
1.29343
1.30073
1.30814
1.31561
1.32327
1.33089
1.33873
1.34647
1.35435
1.36211
1.36995
1.37774
1.38551
1.39331
1.40098
1.40873
1.41626
1.42384
1.43119
1.43851
1.44561
1.45254
1.4593
1.46573
1.47198
1.47778
1.4833
1.48822
1.49266
1.49644
1.49945
1.50171
1.5029
1.50333
1.50334
1.50308
1.50193
1.49934
1.49598
1.49209
1.48873
1.48451
1.48461
0.9312
0.956621
0.981723
1.00542
1.02805
1.04985
1.07129
1.09247
1.11341
1.13384
1.15341
1.17169
1.18842
1.20312
1.21584
1.22623
1.23458
1.24106
1.24625
1.25011
1.253
1.25518
1.25595
1.25502
1.2528
1.25018
1.24749
1.24464
1.2418
1.23915
1.23656
1.2344
1.23243
1.23096
1.22984
1.22923
1.22908
1.22945
1.23043
1.23191
1.23341
1.23519
1.23731
1.24013
1.24354
1.24742
1.25179
1.25654
1.26167
1.2671
1.27273
1.27864
1.28465
1.29097
1.29733
1.30399
1.31071
1.31764
1.3247
1.33186
1.3392
1.34657
1.35414
1.36163
1.36925
1.3768
1.38443
1.39203
1.39962
1.40723
1.41474
1.42232
1.42973
1.43719
1.44444
1.45167
1.45869
1.46555
1.47222
1.47857
1.48475
1.49048
1.49595
1.5008
1.50523
1.50894
1.51196
1.51417
1.51543
1.51587
1.51588
1.51565
1.51459
1.51233
1.50889
1.50566
1.50196
1.4994
1.49578
1.49632
0.911129
0.933612
0.958452
0.984214
1.00998
1.03542
1.05998
1.08375
1.10649
1.12804
1.14845
1.16742
1.18512
1.20106
1.21553
1.22798
1.23876
1.24759
1.25514
1.26113
1.26617
1.2696
1.27215
1.27382
1.27419
1.27301
1.27119
1.26899
1.26655
1.26403
1.26174
1.25973
1.25796
1.25656
1.25548
1.25481
1.25461
1.25486
1.25574
1.25703
1.25846
1.26009
1.2621
1.26478
1.26791
1.27159
1.27566
1.28018
1.28512
1.29031
1.29589
1.30158
1.30758
1.31368
1.32
1.32648
1.33309
1.33993
1.34682
1.35395
1.3611
1.36845
1.37574
1.38314
1.39053
1.39793
1.4054
1.41277
1.42025
1.42758
1.435
1.44226
1.44954
1.45669
1.46373
1.47068
1.47736
1.48397
1.49018
1.49625
1.50188
1.50723
1.51205
1.51633
1.52002
1.52292
1.52508
1.52629
1.52669
1.52666
1.52636
1.52529
1.52278
1.51984
1.51626
1.51336
1.51029
1.50847
1.50571
1.50663
0.893886
0.915313
0.940531
0.967584
0.995077
1.02205
1.048
1.07253
1.09585
1.11771
1.13849
1.15788
1.1762
1.19322
1.20902
1.22338
1.23624
1.24751
1.25733
1.26567
1.27272
1.2783
1.28285
1.28588
1.28813
1.28945
1.28962
1.2889
1.28744
1.28555
1.28373
1.28213
1.28068
1.27953
1.27861
1.27805
1.27788
1.27812
1.27894
1.28017
1.28156
1.28308
1.28503
1.2875
1.29048
1.29394
1.29777
1.30213
1.30677
1.31186
1.31715
1.32272
1.32852
1.33444
1.34064
1.34688
1.35343
1.35999
1.36686
1.37375
1.38084
1.38791
1.39506
1.40227
1.40945
1.41674
1.42393
1.43124
1.43843
1.44568
1.45285
1.45997
1.46704
1.47394
1.4808
1.48737
1.49385
1.49995
1.50586
1.51136
1.51653
1.52119
1.5253
1.52882
1.53157
1.53358
1.53467
1.53499
1.53493
1.53453
1.53322
1.53099
1.52772
1.52467
1.52155
1.51928
1.51715
1.51607
1.5143
1.5157
0.880518
0.902351
0.928251
0.955982
0.98404
1.01123
1.03722
1.06152
1.0845
1.10606
1.12664
1.14619
1.16495
1.18278
1.19974
1.2156
1.23019
1.24344
1.25527
1.26575
1.27482
1.2827
1.28921
1.29455
1.29862
1.30159
1.3036
1.30506
1.30542
1.305
1.30411
1.3031
1.30203
1.30115
1.30047
1.30008
1.3
1.30031
1.30111
1.30238
1.30371
1.30523
1.30714
1.3095
1.31245
1.31572
1.31949
1.32361
1.32811
1.33299
1.33809
1.34355
1.34912
1.355
1.36095
1.36716
1.37346
1.37996
1.38661
1.39335
1.4002
1.40704
1.41403
1.42096
1.42803
1.43502
1.44209
1.44913
1.45613
1.46316
1.47003
1.47696
1.48364
1.49034
1.49674
1.50304
1.50901
1.51471
1.5201
1.52504
1.52959
1.53346
1.53682
1.53933
1.54118
1.54203
1.54225
1.54211
1.54154
1.54007
1.53743
1.5344
1.53112
1.52841
1.52602
1.52448
1.5233
1.52286
1.52192
1.52379
0.871788
0.89512
0.921526
0.949056
0.976349
1.00257
1.02745
1.05087
1.07304
1.09414
1.11445
1.13409
1.15314
1.17163
1.18938
1.20642
1.22243
1.2374
1.25104
1.26354
1.27466
1.28465
1.29327
1.30075
1.30695
1.31205
1.31599
1.31891
1.32091
1.32254
1.32317
1.32314
1.32274
1.32228
1.32195
1.32179
1.32193
1.32235
1.32322
1.3245
1.3258
1.32736
1.32913
1.33146
1.33424
1.33738
1.34099
1.34487
1.34925
1.35385
1.35888
1.36409
1.36959
1.37529
1.38114
1.38721
1.39334
1.39974
1.40613
1.4127
1.41925
1.42594
1.43264
1.4394
1.44622
1.453
1.45988
1.46664
1.47349
1.48017
1.48688
1.49342
1.49986
1.50615
1.51218
1.51805
1.52347
1.52873
1.53341
1.53779
1.54139
1.54456
1.54679
1.54844
1.54903
1.54911
1.54886
1.54813
1.54631
1.54357
1.54032
1.53724
1.53443
1.53237
1.53078
1.5301
1.52966
1.5298
1.52959
1.53184
0.866396
0.891482
0.918197
0.945049
0.971086
0.995813
1.01926
1.04145
1.06274
1.08328
1.10332
1.12299
1.14228
1.16124
1.17969
1.19756
1.21476
1.23102
1.24625
1.26037
1.27333
1.28509
1.2957
1.30508
1.31336
1.32038
1.32637
1.33114
1.33494
1.33782
1.34011
1.34179
1.3428
1.34322
1.34341
1.34362
1.34397
1.3445
1.34545
1.34667
1.34801
1.3495
1.35118
1.35345
1.35601
1.35909
1.36239
1.36616
1.37023
1.37466
1.37945
1.38446
1.38982
1.39528
1.40107
1.4069
1.413
1.41916
1.42543
1.43178
1.43815
1.44466
1.45111
1.45772
1.46424
1.47086
1.47741
1.48396
1.49048
1.49687
1.50326
1.50938
1.5155
1.52125
1.52692
1.5321
1.53713
1.5416
1.54575
1.54914
1.55203
1.55405
1.55543
1.55579
1.55569
1.55529
1.55434
1.55223
1.54927
1.54589
1.54291
1.54005
1.53815
1.53668
1.53608
1.536
1.53643
1.53695
1.53739
1.53981
0.863571
0.890538
0.917163
0.942839
0.967213
0.990264
1.01223
1.03332
1.05379
1.07392
1.09375
1.11345
1.13298
1.15225
1.17125
1.18975
1.20777
1.22502
1.24142
1.25691
1.27136
1.28477
1.2971
1.30834
1.31846
1.32746
1.33534
1.34209
1.34778
1.35238
1.35622
1.35928
1.36141
1.3631
1.36429
1.36506
1.36564
1.3663
1.36726
1.36839
1.36977
1.37113
1.37287
1.37497
1.37751
1.38038
1.38352
1.3871
1.39091
1.39518
1.39964
1.40451
1.40956
1.41491
1.42046
1.42618
1.43212
1.43809
1.44423
1.45036
1.45663
1.4629
1.46924
1.47562
1.48194
1.48836
1.49461
1.50097
1.50709
1.51326
1.51916
1.52501
1.53055
1.53591
1.54091
1.54556
1.54985
1.55365
1.55684
1.55939
1.56118
1.56222
1.56241
1.56214
1.56153
1.56027
1.55778
1.55472
1.55119
1.54818
1.54545
1.54345
1.54226
1.54158
1.54182
1.54238
1.54322
1.54414
1.54509
1.54775
0.860442
0.889324
0.91577
0.940181
0.963089
0.984749
1.00561
1.02592
1.04595
1.06583
1.08564
1.10542
1.12511
1.14467
1.16402
1.18305
1.20167
1.21968
1.23703
1.2536
1.2693
1.28409
1.29792
1.31073
1.32253
1.33324
1.34288
1.35141
1.35888
1.36517
1.37051
1.37504
1.37861
1.38141
1.38341
1.38506
1.38628
1.38742
1.38839
1.3896
1.39087
1.39221
1.3939
1.39584
1.39823
1.40079
1.40378
1.40703
1.41067
1.41466
1.41893
1.42357
1.42841
1.43361
1.43894
1.44457
1.45028
1.45612
1.46205
1.46802
1.47412
1.48016
1.48636
1.49245
1.49865
1.50474
1.51083
1.51685
1.52274
1.52856
1.53412
1.53958
1.54465
1.54952
1.55386
1.55796
1.56146
1.56445
1.56665
1.56822
1.56887
1.5689
1.56851
1.56761
1.56599
1.56311
1.55983
1.55631
1.55314
1.5506
1.54847
1.54749
1.5468
1.54717
1.54785
1.54871
1.54998
1.55157
1.5531
1.55567
0.853869
0.884609
0.910985
0.934607
0.956659
0.977733
0.998217
1.01837
1.03837
1.05837
1.07835
1.09833
1.11825
1.13805
1.15767
1.17703
1.19609
1.21472
1.2328
1.25019
1.26688
1.28274
1.29777
1.31188
1.32506
1.33725
1.34843
1.35854
1.36756
1.37548
1.3823
1.38814
1.39328
1.39727
1.40047
1.40295
1.40485
1.40646
1.40769
1.40901
1.4102
1.41161
1.41307
1.41482
1.41685
1.41914
1.42185
1.42479
1.42822
1.43186
1.43595
1.44029
1.44497
1.44994
1.45512
1.46057
1.46608
1.47181
1.47755
1.48344
1.48937
1.4953
1.50135
1.50725
1.51332
1.51914
1.52511
1.53078
1.53651
1.5419
1.54724
1.55214
1.55686
1.561
1.56491
1.56816
1.57096
1.57288
1.57423
1.57459
1.57445
1.57396
1.57283
1.57079
1.56757
1.56414
1.56069
1.55748
1.55505
1.55291
1.55199
1.55139
1.5518
1.55247
1.55341
1.5547
1.55663
1.55897
1.56086
1.56335
0.836805
0.870036
0.897318
0.921518
0.944153
0.9659
0.987133
1.00803
1.02869
1.04918
1.0696
1.08995
1.11023
1.13041
1.15046
1.17026
1.18981
1.20897
1.22762
1.24569
1.26314
1.2799
1.29586
1.31108
1.32535
1.33878
1.35119
1.36266
1.37308
1.38248
1.39073
1.39789
1.40414
1.40945
1.41376
1.4171
1.41983
1.42193
1.42366
1.4251
1.42638
1.42771
1.42899
1.43055
1.4322
1.43429
1.43658
1.43932
1.44239
1.44582
1.44965
1.45376
1.4583
1.46304
1.46815
1.4734
1.47884
1.48448
1.49013
1.49603
1.50179
1.50779
1.5136
1.51958
1.52535
1.53121
1.53683
1.54244
1.54775
1.55295
1.55775
1.56232
1.56634
1.57006
1.57318
1.57579
1.57752
1.57863
1.57885
1.57865
1.57801
1.57651
1.57404
1.57072
1.56715
1.56378
1.56053
1.55823
1.55613
1.55524
1.55471
1.55511
1.55577
1.55669
1.55812
1.56004
1.56259
1.5653
1.5675
1.57002
0.807383
0.843398
0.872828
0.899114
0.92373
0.947353
0.970229
0.99258
1.01453
1.03615
1.0575
1.07864
1.09954
1.12028
1.14074
1.16103
1.18103
1.20077
1.22001
1.23872
1.25684
1.27427
1.29102
1.307
1.32219
1.33658
1.35006
1.36264
1.37424
1.38481
1.39432
1.40273
1.4101
1.41661
1.42207
1.42649
1.43005
1.43289
1.43513
1.43687
1.43841
1.43969
1.44106
1.4424
1.44402
1.44584
1.44801
1.45054
1.45338
1.45667
1.46024
1.46423
1.46851
1.47309
1.47799
1.48302
1.48837
1.49375
1.49942
1.50504
1.51087
1.51661
1.52247
1.52822
1.53399
1.53961
1.54514
1.55048
1.55558
1.56041
1.56487
1.56888
1.57245
1.57551
1.57794
1.57958
1.58044
1.5806
1.58041
1.5796
1.57767
1.57477
1.57142
1.56775
1.56452
1.56128
1.55908
1.55707
1.55621
1.55576
1.55618
1.55682
1.55778
1.55915
1.56125
1.56372
1.56663
1.5696
1.57201
1.57461
0.769985
0.807275
0.83903
0.86815
0.89552
0.921679
0.94684
0.971192
0.994874
1.01796
1.04054
1.06268
1.08444
1.10588
1.12703
1.14788
1.16841
1.1886
1.20837
1.22756
1.24623
1.26428
1.28175
1.29852
1.31459
1.32986
1.34429
1.35782
1.37039
1.38194
1.39247
1.4019
1.41022
1.41759
1.4241
1.42961
1.43417
1.43787
1.4409
1.44337
1.44531
1.44698
1.44845
1.44991
1.45145
1.45314
1.45513
1.45736
1.45998
1.46291
1.46622
1.46992
1.47391
1.47832
1.48289
1.48783
1.4929
1.49826
1.50372
1.50935
1.51503
1.52079
1.52654
1.53228
1.53792
1.54347
1.54882
1.55397
1.55882
1.56331
1.56732
1.57086
1.57389
1.57625
1.5778
1.57862
1.57885
1.57866
1.57757
1.57532
1.57219
1.56888
1.5652
1.56216
1.55903
1.55693
1.55504
1.55424
1.55389
1.55433
1.555
1.55595
1.55742
1.55942
1.56205
1.56486
1.56802
1.57118
1.57376
1.57641
0.733177
0.769377
0.801953
0.832649
0.861962
0.890065
0.917129
0.943272
0.968576
0.993166
1.01709
1.04043
1.06326
1.0856
1.10755
1.12908
1.15028
1.17109
1.19154
1.21141
1.23069
1.24938
1.26737
1.28469
1.30125
1.31704
1.33202
1.34617
1.35942
1.37181
1.38323
1.39371
1.40325
1.41172
1.41944
1.42626
1.43205
1.43686
1.44081
1.444
1.44656
1.44868
1.45044
1.45207
1.45362
1.45527
1.45707
1.4591
1.46144
1.46408
1.46712
1.47048
1.47425
1.47833
1.48272
1.48742
1.49236
1.49755
1.50291
1.50844
1.51405
1.51975
1.52544
1.53111
1.53667
1.54209
1.5473
1.5522
1.55677
1.56084
1.56443
1.56745
1.56989
1.57137
1.57233
1.5727
1.57247
1.57098
1.56859
1.56536
1.56224
1.55864
1.55578
1.55285
1.55088
1.54918
1.54846
1.54823
1.54873
1.54944
1.55046
1.55191
1.55405
1.55654
1.55951
1.56255
1.56592
1.56923
1.57196
1.57466
0.696014
0.730498
0.762737
0.793842
0.824009
0.853258
0.881593
0.909044
0.935678
0.961518
0.986679
1.01116
1.03507
1.05842
1.08127
1.10364
1.12554
1.14697
1.16797
1.18829
1.20801
1.22706
1.24554
1.26337
1.28055
1.29708
1.31283
1.32789
1.34205
1.35546
1.36792
1.37955
1.3902
1.3999
1.40864
1.41649
1.42346
1.42933
1.43437
1.43855
1.44202
1.44489
1.44723
1.44928
1.45102
1.45274
1.45443
1.45627
1.45833
1.46065
1.46336
1.46638
1.46986
1.47363
1.4778
1.48226
1.48702
1.49206
1.49726
1.50271
1.50817
1.51382
1.51933
1.52495
1.53025
1.53559
1.5404
1.54512
1.54913
1.55283
1.55579
1.55827
1.55983
1.56105
1.56148
1.56096
1.5592
1.55696
1.55372
1.5508
1.5474
1.5447
1.54198
1.54015
1.53863
1.53801
1.53796
1.53852
1.53926
1.54035
1.54186
1.54395
1.54654
1.54934
1.55256
1.55581
1.55935
1.56281
1.56565
1.56839