/*--------------------------------*- C++ -*----------------------------------*\
  =========                 |
  \\      /  F ield         | OpenFOAM: The Open Source CFD Toolbox
   \\    /   O peration     | Website:  https://openfoam.org
    \\  /    A nd           | Version:  13
     \\/     M anipulation  |
\*---------------------------------------------------------------------------*/
FoamFile
{
    format      ascii;
    class       surfaceScalarField;
    location    "10";
    object      phi;
}
// * * * * * * * * * * * * * * * * * * * * * * * * * * * * * * * * * * * * * //

dimensions      [1 0 -1 0 0 0 0];

internalField   nonuniform List<scalar> 
10325
(
0.0840003
-4.40503e-10
0.0840002
1.10991e-08
0.0840002
2.61662e-09
0.0840002
1.08236e-07
0.0840002
2.12026e-08
0.0839973
6.85782e-07
0.0840031
1.20268e-07
0.0839803
4.00294e-06
0.084014
1.38898e-06
0.0839451
1.88079e-05
0.0839624
2.38543e-05
0.0838288
9.9542e-05
0.0835437
0.000300284
0.0822061
0.00126964
0.076214
0.00587769
0.0701506
0.00606578
0.0640888
0.00606436
0.0578149
0.00627443
0.0512001
0.00661164
0.0440991
0.00709541
0.0364219
0.00767154
0.0281685
0.0082473
0.0193791
0.00878378
0.0100247
0.00934828
0.0100177
0.0840003
2.69565e-09
0.0840005
8.50665e-09
0.0839996
4.55148e-08
0.0840018
8.26123e-08
0.0839957
3.35726e-07
0.0840108
5.30175e-07
0.0839726
2.19056e-06
0.0840582
2.60877e-06
0.0838795
1.28425e-05
0.0841426
1.97383e-05
0.0837746
7.09503e-05
0.0839608
0.000183703
0.083459
0.000625456
0.0821885
0.00254245
0.0761677
0.011778
0.0700743
0.0121628
0.0641123
0.0120302
0.0578606
0.0125247
0.0512661
0.0132029
0.0441031
0.0142534
0.0363461
0.0154227
0.0280034
0.0165838
0.019091
0.0176904
0.00968048
0.0187526
0.0196911
0.0840003
1.60244e-09
0.0840005
1.81485e-08
0.0839997
4.18472e-08
0.0840019
1.76706e-07
0.0839968
3.10316e-07
0.0840072
1.18348e-06
0.0839841
1.89548e-06
0.0840224
7.12672e-06
0.0839464
1.25458e-05
0.0840401
4.03221e-05
0.0838644
9.43419e-05
0.0839041
0.00028619
0.0835066
0.000923245
0.0822834
0.00374921
0.0763718
0.0175578
0.0702497
0.0182883
0.0643539
0.0179304
0.0581934
0.0186822
0.0516452
0.0197474
0.0445034
0.0213908
0.0367244
0.0231954
0.0283293
0.0249723
0.0193023
0.0267122
0.00975733
0.0282905
0.0294404
0.0840002
3.08617e-09
0.0840006
1.93254e-08
0.0839993
6.71436e-08
0.0840026
1.88867e-07
0.0839946
4.98419e-07
0.0840137
1.25512e-06
0.0839703
3.14156e-06
0.0840629
7.79268e-06
0.0838778
1.94219e-05
0.0841465
4.91823e-05
0.0837666
0.000129884
0.08399
0.000373235
0.0834641
0.00121674
0.082425
0.00484073
0.076719
0.0231163
0.0706305
0.0243805
0.0648499
0.0237159
0.0588022
0.024727
0.0523515
0.0261942
0.045298
0.02844
0.0375632
0.0309237
0.0291288
0.0334008
0.0199828
0.0358511
0.0101674
0.0380986
0.0396003
0.0840002
4.58299e-09
0.0840006
2.11304e-08
0.0839994
9.14732e-08
0.0840025
2.07204e-07
0.0839949
6.76359e-07
0.0840131
1.38744e-06
0.0839715
4.27072e-06
0.0840605
8.76297e-06
0.0838808
2.58848e-05
0.0841445
5.83245e-05
0.0837664
0.00016472
0.0839964
0.000457126
0.0834769
0.00149576
0.0825624
0.00581504
0.0772229
0.0282987
0.0711973
0.0304133
0.0655485
0.0293713
0.0596545
0.0306178
0.0533588
0.032486
0.0464583
0.0353362
0.0388321
0.0385431
0.0303919
0.0418333
0.0210649
0.0451725
0.0108445
0.048312
0.050437
0.0840003
4.49106e-09
0.0840005
2.90458e-08
0.0839997
9.87515e-08
0.0840018
2.82492e-07
0.0839968
7.33251e-07
0.0840082
1.87414e-06
0.0839818
4.6449e-06
0.0840295
1.15917e-05
0.0839351
2.89398e-05
0.0840612
7.26718e-05
0.08384
0.0001923
0.0839451
0.000543087
0.083544
0.00174849
0.0827146
0.00665716
0.0780294
0.0328226
0.072069
0.0363879
0.0665163
0.0349331
0.0608025
0.0363286
0.054715
0.0385694
0.0480281
0.0420177
0.0405666
0.0459992
0.0321791
0.0502133
0.0226689
0.0546755
0.0118926
0.0590796
0.0623207
0.0840003
5.55528e-09
0.0840005
3.05343e-08
0.0839997
1.19143e-07
0.0840018
2.97078e-07
0.083997
8.8671e-07
0.0840077
1.99389e-06
0.0839835
5.5467e-06
0.0840266
1.2775e-05
0.0839413
3.36536e-05
0.0840567
8.27938e-05
0.0838491
0.000219886
0.0839597
0.00061603
0.0835985
0.00196198
0.0829587
0.00730934
0.0794925
0.0361161
0.0734849
0.0424156
0.0679254
0.0405046
0.0623801
0.0418711
0.0565405
0.0444053
0.0501452
0.0484068
0.0429111
0.0532262
0.0346282
0.0584877
0.0249854
0.0643098
0.0135388
0.0705186
0.0758495
0.0840003
5.24062e-09
0.0840003
3.75787e-08
0.0840002
1.167e-07
0.0840003
3.65178e-07
0.0840002
8.74709e-07
0.0839984
2.39442e-06
0.0840027
5.67178e-06
0.0839842
1.46961e-05
0.0840168
3.59213e-05
0.0839474
9.18881e-05
0.083996
0.000237981
0.0838788
0.000666623
0.0837872
0.00209084
0.083393
0.00762353
0.0821638
0.0371786
0.0758431
0.0487672
0.0700649
0.0462987
0.0645914
0.0473426
0.0590026
0.0499908
0.0529279
0.0544757
0.0460277
0.0601206
0.0379752
0.0665314
0.0283596
0.0739155
0.0162546
0.082613
0.0920931
0.0840003
4.9112e-09
0.0840004
3.85133e-08
0.0839999
1.15461e-07
0.0840013
3.76416e-07
0.0839984
8.61572e-07
0.0840035
2.54605e-06
0.0839942
5.38248e-06
0.084006
1.60674e-05
0.0839836
3.39675e-05
0.0840154
9.84205e-05
0.0839506
0.000234168
0.0840172
0.000678447
0.0839675
0.00205914
0.0841874
0.0073842
0.0866472
0.0345371
0.0799518
0.0554945
0.0733768
0.0528918
0.0678756
0.0528439
0.0623717
0.0554922
0.0566271
0.0602141
0.050107
0.0666322
0.0427515
0.0738767
0.0337793
0.0828769
0.0210172
0.0953638
0.113097
0.0840003
6.22196e-09
0.0840004
2.89684e-08
0.0840002
1.25596e-07
0.0840005
2.85483e-07
0.0839992
9.3248e-07
0.0840039
1.91633e-06
0.0839897
5.92538e-06
0.0840288
1.19496e-05
0.0839482
3.60715e-05
0.0841092
7.76204e-05
0.0839193
0.000221712
0.0842355
0.000569203
0.0843506
0.00174824
0.0858302
0.00597572
0.0941017
0.0260512
0.0868969
0.0627193
0.0782813
0.0615225
0.0727959
0.0583354
0.067003
0.0612823
0.0615902
0.0656222
0.0558724
0.0723408
0.0495985
0.0801395
0.0413905
0.0910713
0.0293456
0.107393
0.142427
0.0840003
4.47006e-09
0.0840003
2.84082e-08
0.0840003
9.85151e-08
0.0840004
2.76965e-07
0.0840004
7.29175e-07
0.0839999
1.84095e-06
0.0840034
4.54462e-06
0.0839934
1.13873e-05
0.0840262
2.76197e-05
0.0839828
6.98943e-05
0.0841007
0.00017464
0.0841245
0.00046675
0.0845694
0.00135015
0.0860087
0.00447001
0.0933492
0.0186385
0.0903186
0.0656873
0.0841308
0.0676845
0.0778181
0.0646508
0.072624
0.0664698
0.0676459
0.0705927
0.0632248
0.0767498
0.0584763
0.0848728
0.0542656
0.0952639
0.0538937
0.107744
0.113384
0.0829085
0.0840003
4.02788e-09
0.0840002
2.66509e-08
0.0840005
8.72805e-08
0.0839999
2.5923e-07
0.0840016
6.48964e-07
0.083997
1.69161e-06
0.0840094
4.12091e-06
0.0839804
1.02775e-05
0.0840506
2.5372e-05
0.0839253
6.24526e-05
0.0841441
0.000158516
0.0839532
0.000415129
0.0843124
0.00118754
0.0847735
0.00386111
0.0880623
0.0153264
0.089171
0.0644353
0.0863927
0.0704372
0.0811401
0.0698934
0.0769149
0.0706799
0.0729455
0.0745469
0.0694913
0.0801867
0.0668184
0.0875254
0.0658481
0.0962083
0.0698107
0.10375
0.104261
0.0788964
0.0840003
3.75433e-09
0.0840003
2.44949e-08
0.0840003
8.24616e-08
0.0840005
2.38263e-07
0.0840001
6.15254e-07
0.0840005
1.57363e-06
0.0840006
3.88496e-06
0.0839968
9.74817e-06
0.0840092
2.38939e-05
0.083983
5.99267e-05
0.0840359
0.000150038
0.0840038
0.000393775
0.0841183
0.0011063
0.0843732
0.00354245
0.0863355
0.0133432
0.0890982
0.0615169
0.0862601
0.0732576
0.0828057
0.0733301
0.0799772
0.0734998
0.0773308
0.0771746
0.0750602
0.0824332
0.073954
0.0886022
0.0755546
0.0945799
0.0801465
0.099118
0.0985187
0.0858256
0.0840003
3.34473e-09
0.0840003
2.41042e-08
0.0840002
7.6667e-08
0.0840005
2.36245e-07
0.0840001
5.64891e-07
0.0840002
1.59035e-06
0.0840014
3.47782e-06
0.0839943
1.00052e-05
0.0840144
2.12894e-05
0.0839699
6.13715e-05
0.0840536
0.000138402
0.0839662
0.000386293
0.0841131
0.001037
0.0842722
0.00329027
0.0857028
0.0119213
0.0914606
0.0555854
0.0886705
0.0760374
0.0856818
0.0763091
0.0830927
0.0760657
0.0813925
0.0788558
0.0803419
0.0834557
0.0805908
0.0883133
0.0826041
0.0925184
0.0866192
0.0950543
0.093808
0.0912655
0.0840003
3.25275e-09
0.0840003
2.16499e-08
0.0840005
7.06491e-08
0.084
2.10851e-07
0.084001
5.31674e-07
0.0839994
1.38231e-06
0.0840016
3.4441e-06
0.0840007
8.43959e-06
0.0839986
2.15972e-05
0.0840111
5.21548e-05
0.0840075
0.000135495
0.0840423
0.000343631
0.084147
0.000950742
0.0845154
0.00288302
0.0862462
0.0101584
0.0977383
0.0439175
0.0937627
0.0799875
0.0896967
0.0803587
0.0869141
0.0788306
0.0853963
0.0803439
0.0850097
0.0838011
0.0857891
0.0874932
0.0879158
0.0903336
0.0914012
0.0915051
0.0897859
0.0953445
0.0840003
2.8602e-09
0.0840004
1.66291e-08
0.0840002
6.16307e-08
0.0840006
1.62522e-07
0.0839997
4.54587e-07
0.0840027
1.08896e-06
0.0839963
2.80592e-06
0.0840158
6.82119e-06
0.0839786
1.67544e-05
0.0840823
4.19559e-05
0.0839388
0.0001019
0.0842839
0.000261489
0.0842376
0.000685088
0.085384
0.00198576
0.0888483
0.00651626
0.106307
0.0264041
0.100968
0.0852315
0.0973813
0.0839126
0.0921289
0.0840543
0.0899356
0.082508
0.0894542
0.0842298
0.0902169
0.0866688
0.0921597
0.08832
0.0951319
0.088446
0.0863483
0.0984779
0.0840003
2.44631e-09
0.0840003
1.37427e-08
0.0840004
5.13522e-08
0.0840001
1.33852e-07
0.084001
3.79467e-07
0.0839996
8.82709e-07
0.0840024
2.40436e-06
0.0840008
5.35046e-06
0.0840026
1.46517e-05
0.0840152
3.23995e-05
0.0840175
8.79554e-05
0.0840829
0.000205746
0.0842025
0.000559221
0.0846296
0.00154152
0.0861324
0.00497516
0.0932782
0.0192038
0.102396
0.0759288
0.0995781
0.0866773
0.0964427
0.0871391
0.0940008
0.0849031
0.0933821
0.0847911
0.0940509
0.0859289
0.0957039
0.0865744
0.098232
0.0858047
0.0834485
0.101007
0.0840003
1.74145e-09
0.0840003
1.30959e-08
0.0840004
3.93233e-08
0.0840002
1.27548e-07
0.0840008
2.94238e-07
0.0839994
8.32011e-07
0.0840038
1.86802e-06
0.0839936
5.06145e-06
0.0840232
1.15589e-05
0.0839636
3.0311e-05
0.0841099
7.20216e-05
0.0838985
0.00018561
0.084294
0.000472436
0.0841863
0.00131488
0.0853064
0.00408336
0.0894266
0.0148955
0.101395
0.0637828
0.100728
0.0872973
0.0989691
0.0888459
0.0970758
0.08675
0.0965785
0.0852049
0.0972255
0.085188
0.0986788
0.0850146
0.100993
0.0833723
0.0810483
0.103253
0.0840003
1.64305e-09
0.0840004
1.01387e-08
0.0840003
3.54772e-08
0.0840005
9.95072e-08
0.0839999
2.62901e-07
0.0840019
6.62483e-07
0.0839977
1.65295e-06
0.0840093
4.09628e-06
0.0839869
1.01186e-05
0.084047
2.52101e-05
0.0839435
6.20519e-05
0.0841684
0.000157275
0.0839552
0.00039943
0.0844803
0.00108984
0.0850243
0.00326276
0.0886448
0.0113547
0.106135
0.0460401
0.104214
0.0891408
0.103039
0.089961
0.100857
0.088864
0.0997742
0.0861961
0.100119
0.0847224
0.101498
0.0834924
0.103264
0.0814689
0.078881
0.105276
0.0840003
1.26521e-09
0.0840003
7.82932e-09
0.0840003
2.76286e-08
0.0840004
7.63386e-08
0.0840001
2.04234e-07
0.0840013
5.0584e-07
0.083999
1.27012e-06
0.0840071
3.11113e-06
0.0839916
7.63488e-06
0.0840422
1.88368e-05
0.0839617
4.59323e-05
0.0841921
0.000114749
0.0839983
0.000285828
0.0847049
0.000752465
0.0854711
0.00213095
0.0901125
0.00688332
0.109367
0.0266016
0.11081
0.0875282
0.107753
0.092926
0.104805
0.0917196
0.103323
0.0875732
0.103297
0.0846055
0.104218
0.0824242
0.105384
0.0801446
0.0768177
0.10727
0.0840003
1.02308e-09
0.0840003
6.05382e-09
0.0840003
2.20326e-08
0.0840003
5.90968e-08
0.0840003
1.62958e-07
0.0840007
3.90956e-07
0.0839999
1.01316e-06
0.0840038
2.40954e-06
0.0839955
6.0597e-06
0.0840249
1.46479e-05
0.0839742
3.62555e-05
0.0841248
8.93806e-05
0.0839664
0.000222903
0.0844301
0.000575096
0.0846537
0.00158831
0.0867867
0.00495919
0.0946909
0.0184698
0.110213
0.0717359
0.110082
0.092913
0.108458
0.0932036
0.106454
0.0894465
0.106182
0.0847201
0.106647
0.0817992
0.107704
0.0788825
0.0748364
0.109493
0.0840003
8.04568e-10
0.0840003
4.81194e-09
0.0840004
1.71855e-08
0.0840003
4.6976e-08
0.0840005
1.26927e-07
0.0840001
3.1127e-07
0.0840012
8.02155e-07
0.0840004
1.90107e-06
0.0840022
4.89858e-06
0.0840058
1.15436e-05
0.0840031
2.96964e-05
0.0840407
7.10944e-05
0.0840394
0.000182442
0.0841981
0.000459218
0.0844719
0.0012553
0.0856853
0.00375887
0.0908145
0.0132178
0.111053
0.0511704
0.111889
0.0918903
0.111603
0.0933102
0.109719
0.0911569
0.108692
0.085593
0.108867
0.0814356
0.110147
0.0774007
0.0729145
0.111895
0.0840003
5.77869e-10
0.0840003
3.59754e-09
0.0840004
1.24609e-08
0.0840003
3.51758e-08
0.0840005
9.21292e-08
0.0840001
2.30749e-07
0.0840016
5.76356e-07
0.0839991
1.40087e-06
0.0840076
3.48889e-06
0.0839952
8.35472e-06
0.0840376
2.09911e-05
0.0839876
5.00854e-05
0.0841679
0.000126962
0.0841109
0.00031179
0.0847774
0.000824957
0.0859495
0.00232107
0.091734
0.0075073
0.114397
0.0282682
0.117217
0.0887439
0.11436
0.0959469
0.113004
0.0922932
0.111687
0.0867065
0.111887
0.0810153
0.113043
0.0760621
0.0711379
0.1147
0.0840003
4.18525e-10
0.0840003
2.71255e-09
0.0840003
9.08829e-09
0.0840003
2.64948e-08
0.0840004
6.72792e-08
0.0840002
1.73217e-07
0.0840011
4.22193e-07
0.0839994
1.04715e-06
0.0840058
2.56303e-06
0.083994
6.22812e-06
0.0840334
1.54335e-05
0.0839707
3.71553e-05
0.0841556
9.33946e-05
0.0839725
0.000228506
0.084541
0.000593798
0.0848447
0.0016211
0.0875246
0.00504749
0.0968234
0.0186565
0.115572
0.0695012
0.11537
0.0959038
0.115529
0.0919252
0.115002
0.0870319
0.115053
0.0807711
0.116119
0.0748739
0.0695086
0.117716
0.0840003
2.91344e-10
0.0840003
2.04514e-09
0.0840003
6.53351e-09
0.0840003
1.98953e-08
0.0840003
4.85688e-08
0.0840004
1.30203e-07
0.0840006
3.04685e-07
0.0840002
7.9117e-07
0.084003
1.85431e-06
0.0839976
4.72638e-06
0.0840191
1.12416e-05
0.0839841
2.8221e-05
0.0841022
6.88882e-05
0.0839743
0.000172139
0.0843827
0.000437486
0.084501
0.00117448
0.0862585
0.00348739
0.0924744
0.0121265
0.115705
0.0456822
0.117904
0.0933602
0.117407
0.0922272
0.117429
0.0868071
0.117975
0.080065
0.119359
0.0734597
0.0679243
0.120998
0.0840003
2.26037e-10
0.0840003
1.33846e-09
0.0840003
4.90154e-09
0.0840004
1.30816e-08
0.0840003
3.59118e-08
0.0840005
8.72599e-08
0.0840001
2.1957e-07
0.0840015
5.3999e-07
0.0839997
1.29215e-06
0.0840055
3.2848e-06
0.0840008
7.55658e-06
0.0840195
1.98541e-05
0.0840237
4.47413e-05
0.0840975
0.000119086
0.0842013
0.000279087
0.0846626
0.000754223
0.0859443
0.00208258
0.0912566
0.00673583
0.111167
0.0254063
0.119734
0.0841422
0.119774
0.0919353
0.120469
0.085907
0.121435
0.0790043
0.122723
0.0722725
0.0665888
0.124198
0.0840003
1.49396e-10
0.0840003
1.01011e-09
0.0840003
3.26253e-09
0.0840003
9.84604e-09
0.0840004
2.43508e-08
0.0840003
6.3698e-08
0.0840006
1.54441e-07
0.0840002
3.79737e-07
0.0840013
9.47536e-07
0.0840012
2.2221e-06
0.0840023
5.74846e-06
0.0840122
1.30686e-05
0.0840047
3.46259e-05
0.0840731
7.87061e-05
0.0840776
0.000209619
0.0843564
0.000513771
0.0848829
0.00144581
0.0871149
0.00444776
0.0955379
0.0166008
0.115622
0.0630243
0.11961
0.08768
0.121785
0.0837356
0.123991
0.076822
0.125709
0.0706705
0.0652501
0.12724
0.0840003
1.08071e-10
0.0840003
6.60458e-10
0.0840003
2.33379e-09
0.0840003
6.42134e-09
0.0840003
1.72907e-08
0.0840004
4.20057e-08
0.0840002
1.07699e-07
0.084001
2.56765e-07
0.0839998
6.43573e-07
0.0840037
1.54119e-06
0.0839982
3.83876e-06
0.0840154
9.24451e-06
0.0839976
2.28979e-05
0.0840643
5.61067e-05
0.084041
0.00013956
0.0842957
0.000354683
0.0845806
0.000952611
0.0862036
0.00283939
0.0925894
0.00985708
0.115277
0.0390379
0.119288
0.0832175
0.122751
0.0804325
0.125308
0.0744269
0.127594
0.0686333
0.0636556
0.129441
0.0840003
6.77191e-11
0.0840003
4.59654e-10
0.0840003
1.51858e-09
0.0840003
4.51297e-09
0.0840003
1.11353e-08
0.0840004
2.96111e-08
0.0840003
6.83159e-08
0.0840007
1.78478e-07
0.0840002
4.05222e-07
0.0840016
1.06234e-06
0.0840015
2.38336e-06
0.0840035
6.26866e-06
0.0840142
1.41396e-05
0.0840158
3.68281e-05
0.0840879
8.59366e-05
0.084166
0.000221823
0.0845339
0.000567803
0.0856357
0.00162981
0.0900316
0.00530195
0.107019
0.0213971
0.116052
0.073296
0.121554
0.0750406
0.125288
0.0708796
0.128317
0.0659341
0.0617812
0.130462
0.0840003
5.49074e-11
0.0840003
2.92665e-10
0.0840003
1.16328e-09
0.0840003
2.84571e-09
0.0840003
8.47311e-09
0.0840004
1.90193e-08
0.0840002
5.14022e-08
0.0840007
1.1821e-07
0.0839997
2.99633e-07
0.0840026
7.25766e-07
0.083997
1.72415e-06
0.0840131
4.43889e-06
0.0839835
9.98798e-06
0.0840588
2.68606e-05
0.0839516
5.9617e-05
0.0841909
0.000160928
0.0840685
0.000396244
0.084728
0.00113547
0.0860946
0.00358358
0.0929749
0.0140602
0.10686
0.0578993
0.114609
0.0673741
0.121325
0.0643301
0.125722
0.0618352
0.0590188
0.128729
0.0840003
3.84807e-11
0.0840003
2.24418e-10
0.0840003
8.13365e-10
0.0840003
2.17861e-09
0.0840003
6.0628e-09
0.0840003
1.41698e-08
0.0840004
3.86508e-08
0.0840002
8.55608e-08
0.0840007
2.36105e-07
0.0840001
5.09277e-07
0.0840006
1.43039e-06
0.0840024
3.03389e-06
0.0839955
8.54985e-06
0.0840188
1.84098e-05
0.0839805
5.08756e-05
0.0840699
0.000117282
0.0840388
0.000318156
0.0842826
0.000864292
0.084903
0.00273472
0.0883704
0.0101672
0.0984386
0.0461255
0.106971
0.0591794
0.115048
0.0565765
0.120334
0.0568215
0.0551792
0.124404
0.0840003
2.1348e-11
0.0840003
1.87886e-10
0.0840003
5.09189e-10
0.0840003
1.85101e-09
0.0840003
3.83783e-09
0.0840003
1.22372e-08
0.0840004
2.41827e-08
0.0840001
7.51645e-08
0.0840009
1.4955e-07
0.083999
4.49606e-07
0.0840044
9.29487e-07
0.0839924
2.65996e-06
0.0840231
5.84712e-06
0.0839593
1.57634e-05
0.0840969
3.72178e-05
0.0838765
9.65503e-05
0.0842171
0.000247021
0.0839819
0.000686727
0.0846639
0.00213534
0.0865409
0.00777888
0.0950246
0.0358965
0.102258
0.0524581
0.108636
0.0505668
0.11397
0.0515933
0.0504516
0.118792
0.0840003
2.40864e-11
0.0840003
1.02492e-10
0.0840003
4.79369e-10
0.0840003
1.00913e-09
0.0840003
3.53626e-09
0.0840003
6.7761e-09
0.0840003
2.22875e-08
0.0840005
4.22079e-08
0.084
1.34605e-07
0.0840014
2.63408e-07
0.0839979
7.99943e-07
0.0840075
1.67882e-06
0.0839856
4.71612e-06
0.0840417
1.07353e-05
0.0839324
2.82183e-05
0.0841445
6.93962e-05
0.083893
0.000180395
0.0843113
0.000495837
0.0845272
0.0015142
0.0866674
0.00541536
0.0958406
0.0248233
0.101027
0.0476903
0.103892
0.0480475
0.108906
0.0467575
0.0457018
0.113818
0.0840003
1.02385e-11
0.0840003
1.06829e-10
0.0840003
2.50018e-10
0.0840003
1.04303e-09
0.0840003
1.87466e-09
0.0840003
6.67184e-09
0.0840004
1.20826e-08
0.0840002
3.94804e-08
0.0840008
7.70311e-08
0.0839993
2.28256e-07
0.0840031
4.95599e-07
0.0839951
1.30818e-06
0.0840154
3.18731e-06
0.083974
7.59514e-06
0.0840642
2.01445e-05
0.0839274
4.56819e-05
0.0841755
0.000125119
0.0840423
0.000319244
0.0847015
0.00096042
0.0864667
0.00324607
0.0958132
0.014562
0.0987782
0.044117
0.0995577
0.0469395
0.104358
0.0419871
0.0410807
0.109019
0.0840003
1.38888e-11
0.0840003
6.02397e-11
0.0840003
2.67501e-10
0.0840003
5.89608e-10
0.0840003
1.96517e-09
0.0840004
3.8637e-09
0.0840003
1.2444e-08
0.0840005
2.33244e-08
0.0839999
7.56935e-08
0.0840013
1.42206e-07
0.0839983
4.459e-07
0.0840056
8.87429e-07
0.0839902
2.6196e-06
0.084024
5.54931e-06
0.0839582
1.53062e-05
0.0840806
3.54928e-05
0.0839052
9.29997e-05
0.0841667
0.000243084
0.084115
0.000711832
0.084876
0.00237141
0.0884043
0.0102779
0.0932376
0.0383803
0.0959027
0.043745
0.0995809
0.0384381
0.0367944
0.103981
0.0840003
7.76356e-12
0.0840003
6.35442e-11
0.0840003
1.86755e-10
0.0840003
6.09787e-10
0.0840003
1.39676e-09
0.0840003
3.98266e-09
0.0840003
8.80794e-09
0.0840003
2.47059e-08
0.0840003
5.35358e-08
0.0840001
1.48116e-07
0.0840011
3.3216e-07
0.083997
8.68696e-07
0.0840082
2.0504e-06
0.0839787
5.11124e-06
0.0840422
1.25568e-05
0.0839199
3.05256e-05
0.0840949
7.83128e-05
0.0838948
0.00020524
0.0840929
0.000593766
0.0842113
0.00195757
0.085722
0.00818291
0.087962
0.0350973
0.093401
0.0378268
0.0960658
0.0360151
0.0333439
0.09968
0.0840003
1.08007e-11
0.0840003
3.90226e-11
0.0840003
2.13797e-10
0.0840003
3.92488e-10
0.0840003
1.54956e-09
0.0840003
2.84493e-09
0.0840003
9.26687e-09
0.0840004
1.86348e-08
0.0840001
5.31536e-08
0.0840006
1.20398e-07
0.0839999
2.99584e-07
0.0839999
7.72691e-07
0.0840012
1.68234e-06
0.0839909
4.89518e-06
0.0840128
9.82939e-06
0.0839584
3.00021e-05
0.0840244
6.49701e-05
0.0839283
0.000188919
0.0839657
0.000524557
0.0840587
0.00173928
0.084783
0.00691644
0.0862831
0.03223
0.090096
0.0338773
0.0934197
0.0327391
0.030156
0.0967573
0.0840003
6.38634e-12
0.0840003
5.53992e-11
0.0840003
1.45494e-10
0.0840003
5.38612e-10
0.0840003
1.09565e-09
0.0840003
3.44287e-09
0.0840004
7.12419e-09
0.0840002
2.00877e-08
0.0840006
4.60403e-08
0.0839995
1.13819e-07
0.0840024
2.90509e-07
0.0839954
6.51594e-07
0.0840115
1.82401e-06
0.0839749
3.73018e-06
0.084048
1.12596e-05
0.0839063
2.27736e-05
0.0841022
6.67976e-05
0.0838263
0.000160602
0.0840374
0.000477163
0.0839036
0.00152877
0.084265
0.00606612
0.0854788
0.0294798
0.0883456
0.031063
0.0920119
0.0291813
0.0274093
0.0949037
0.0840003
6.30616e-12
0.0840003
4.93186e-11
0.0840003
1.46396e-10
0.0840003
4.77044e-10
0.0840003
1.06781e-09
0.0840003
3.20365e-09
0.0840003
6.32219e-09
0.0840004
2.06504e-08
0.0840003
3.55759e-08
0.0840002
1.30327e-07
0.0840006
2.03926e-07
0.083998
7.96543e-07
0.0840055
1.21291e-06
0.0839809
4.73378e-06
0.084034
7.60143e-06
0.0839187
2.70291e-05
0.0840793
5.26663e-05
0.0838406
0.000160692
0.0839873
0.000425184
0.0837873
0.00140185
0.0839591
0.00541683
0.0848314
0.0269094
0.0876118
0.028521
0.0909562
0.0260458
0.024816
0.0936895
0.0840003
6.27968e-12
0.0840003
4.42974e-11
0.0840003
1.38639e-10
0.0840003
4.26902e-10
0.0840003
1.05819e-09
0.0840003
2.68891e-09
0.0840003
6.9363e-09
0.0840004
1.56229e-08
0.0840002
4.41827e-08
0.0840007
8.90854e-08
0.0839989
2.75421e-07
0.0840036
5.14058e-07
0.0839902
1.69152e-06
0.0840222
2.99844e-06
0.0839443
1.02241e-05
0.0840955
1.89802e-05
0.0838137
5.9396e-05
0.0841288
0.000136477
0.0837257
0.000408144
0.0838897
0.00127965
0.0837284
0.00490642
0.084325
0.0244809
0.0871386
0.0260701
0.0902556
0.0232202
0.0223593
0.0928375
0.0840003
7.26813e-12
0.0840003
3.52145e-11
0.0840003
1.51396e-10
0.0840003
3.47667e-10
0.0840003
1.11173e-09
0.0840003
2.42072e-09
0.0840003
6.62736e-09
0.0840004
1.59414e-08
0.0840001
3.67881e-08
0.0840008
1.03421e-07
0.0839991
2.05007e-07
0.0840024
6.52441e-07
0.083995
1.1475e-06
0.0840052
4.08337e-06
0.083981
6.68619e-06
0.084009
2.40602e-05
0.0839329
4.5673e-05
0.0839808
0.000141065
0.0838141
0.000364426
0.0837725
0.00119101
0.0836304
0.00445076
0.0839338
0.022143
0.0867795
0.0237577
0.0895224
0.0208534
0.0197988
0.0922039
0.0840003
6.89831e-12
0.0840003
3.19256e-11
0.0840003
1.38452e-10
0.0840003
3.08976e-10
0.0840003
1.00798e-09
0.0840003
2.06475e-09
0.0840003
6.43459e-09
0.0840003
1.24851e-08
0.0840003
3.96976e-08
0.0840003
7.60609e-08
0.0839997
2.37426e-07
0.0840014
4.68017e-07
0.083994
1.39124e-06
0.0840118
2.9433e-06
0.0839615
8.02757e-06
0.0840502
1.86818e-05
0.0838758
4.79046e-05
0.084036
0.000123116
0.0837641
0.000343258
0.0837957
0.00108171
0.0835486
0.00402718
0.0836093
0.0198489
0.0865767
0.0215132
0.0893339
0.0185301
0.0174092
0.0919044
0.0840003
3.05526e-12
0.0840003
3.72079e-11
0.0840003
7.67525e-11
0.0840003
3.65473e-10
0.0840003
5.99152e-10
0.0840003
2.38011e-09
0.0840004
3.85372e-09
0.0840002
1.45825e-08
0.0840005
2.47652e-08
0.0839998
8.56813e-08
0.0840014
1.6197e-07
0.0839978
4.95092e-07
0.0840033
1.0736e-06
0.0839916
2.80956e-06
0.0840031
7.0411e-06
0.0839695
1.65377e-05
0.0839942
4.46028e-05
0.083882
0.000109506
0.0838894
0.000314651
0.0836936
0.00097081
0.0835099
0.00361255
0.0833355
0.0175766
0.0864946
0.0192641
0.0893048
0.0162219
0.0150391
0.0918818
0.0840003
4.21371e-12
0.0840003
2.37649e-11
0.0840003
8.58532e-11
0.0840003
2.35067e-10
0.0840003
6.36478e-10
0.0840003
1.53807e-09
0.0840003
4.28268e-09
0.0840004
9.04935e-09
0.0840002
2.86824e-08
0.0840007
5.29675e-08
0.083999
1.84772e-07
0.0840031
3.16417e-07
0.0839916
1.17185e-06
0.0840187
1.90507e-06
0.0839519
7.25739e-06
0.0840789
1.25534e-05
0.0838263
4.22598e-05
0.0841008
9.35383e-05
0.0836903
0.000281877
0.0837869
0.000858272
0.0834697
0.00317813
0.0831324
0.0152777
0.0864857
0.0169596
0.0893626
0.0139078
0.0126648
0.0919956
0.0840003
4.42125e-12
0.0840003
1.3968e-11
0.0840003
8.52336e-11
0.0840003
1.38051e-10
0.0840003
6.01158e-10
0.0840003
1.05776e-09
0.0840003
3.57776e-09
0.0840004
7.67e-09
0.0840001
2.00689e-08
0.0840007
5.55317e-08
0.0839994
1.12632e-07
0.0840014
3.86905e-07
0.0839972
6.29843e-07
0.0839999
2.60365e-06
0.0839911
3.6642e-06
0.0839896
1.59954e-05
0.0839576
2.65346e-05
0.0839447
9.24165e-05
0.0838117
0.000225729
0.0837107
0.000745683
0.0834905
0.00270975
0.0828888
0.012994
0.0864101
0.0145894
0.0893909
0.0115783
0.0103228
0.0920303
0.0840003
2.4381e-12
0.0840003
1.24185e-11
0.0840003
5.09369e-11
0.0840003
1.20942e-10
0.0840003
4.06369e-10
0.0840003
7.68447e-10
0.0840004
2.81605e-09
0.0840003
4.75056e-09
0.0840004
1.85686e-08
0.0840002
2.80954e-08
0.0840002
1.21565e-07
0.0840003
1.74838e-07
0.0839976
7.57719e-07
0.0840039
1.20519e-06
0.0839785
4.60624e-06
0.0840207
8.67747e-06
0.0839175
2.76847e-05
0.0839914
6.48014e-05
0.0837994
0.000192618
0.0837551
0.000595679
0.0834081
0.00222432
0.082708
0.0107002
0.0864271
0.0120897
0.089433
0.00927669
0.00810196
0.0919542
0.0840003
5.83903e-13
0.0840003
1.12075e-11
0.0840003
1.78344e-11
0.0840003
1.15368e-10
0.0840003
1.30194e-10
0.0840003
8.3827e-10
0.0840004
8.82417e-10
0.0840003
5.72491e-09
0.0840005
5.22864e-09
0.0839998
3.6999e-08
0.0840015
2.8953e-08
0.0839974
2.32132e-07
0.0840067
2.46107e-07
0.0839845
1.36649e-06
0.0840297
2.13058e-06
0.0839289
8.00867e-06
0.0840786
1.69143e-05
0.0838039
5.04753e-05
0.0839962
0.000138989
0.083665
0.000445248
0.083384
0.00168954
0.0828894
0.00819979
0.0866935
0.00939712
0.0895184
0.00706885
0.00603746
0.0918555
0.0840003
8.87539e-14
0.0840003
8.02199e-12
0.0840003
4.99008e-12
0.0840003
7.78387e-11
0.0840003
6.58551e-11
0.0840003
4.45133e-10
0.0840003
7.02158e-10
0.0840003
2.29623e-09
0.0840003
5.61793e-09
0.0840005
1.20649e-08
0.0839995
4.2425e-08
0.0840021
6.74205e-08
0.0839945
2.96734e-07
0.084013
4.06519e-07
0.0839657
2.07142e-06
0.0840617
2.85617e-06
0.0838648
1.33232e-05
0.0841026
2.60022e-05
0.0837455
9.22934e-05
0.0838886
0.000280392
0.0834149
0.00111343
0.0833867
0.00544403
0.0869692
0.00650421
0.0895757
0.00487323
0.00403828
0.0918094
0.0840003
1.77169e-12
0.0840003
-1.31449e-12
0.0840003
2.14499e-11
0.0840003
-1.3665e-11
0.0840003
1.5698e-10
0.0840003
-1.40675e-10
0.0840003
1.18056e-09
0.0840004
-1.22815e-09
0.0840001
8.1157e-09
0.0840008
-7.11447e-09
0.0839991
5.09234e-08
0.0840032
-4.01969e-08
0.0839935
3.05746e-07
0.084016
-1.60394e-07
0.0839646
1.65506e-06
0.0840637
1.75818e-07
0.0838776
7.79776e-06
0.0841073
9.66666e-06
0.0837755
4.14883e-05
0.0839379
0.000122481
0.08361
0.000499298
0.0838094
0.00252845
0.0869795
0.00339312
0.0895736
0.0025446
0.0020361
0.0918324
0.0840003
0.0840003
0.0840003
0.0840003
0.0840003
0.0840003
0.0840003
0.0840003
0.0840004
0.0840001
0.0840009
0.0839983
0.0840051
0.0839864
0.0840304
0.0839309
0.084102
0.0838338
0.0840755
0.0838072
0.0838566
0.0840245
0.0869448
0.0896057
0.0918734
0.0396045
0.0432653
0.0155693
0.0239555
-0.0068903
0.0224172
-0.0160344
0.00912182
-0.0222149
0.00616226
-0.0256148
0.00339909
-0.0266112
0.00100574
-0.0269327
0.000326867
-0.0275261
0.000595324
-0.0280843
0.000557453
-0.028561
0.000479587
-0.0287425
0.000184377
-0.028663
-7.84718e-05
-0.028434
-0.000230097
-0.0281167
-0.000317829
-0.0276862
-0.000429444
-0.0270574
-0.000624634
-0.0262458
-0.000805983
-0.0252759
-0.000961774
-0.0241641
-0.00110472
-0.0229158
-0.00123911
-0.0215466
-0.00136282
-0.0200624
-0.00148216
-0.0184844
-0.00158186
-0.0167388
-0.00174658
-0.0149169
-0.00182963
-0.013021
-0.00190399
-0.0110734
-0.00195698
-0.0090844
-0.00199911
-0.00704982
-0.00204708
-0.00496573
-0.00209549
-0.00283701
-0.00213577
-0.000643843
-0.00219768
0.00159678
-0.00224722
0.00377172
-0.00218075
0.00587924
-0.00210966
0.007939
-0.0020577
0.00995756
-0.0020159
0.0119151
-0.00195332
0.0138167
-0.00189448
0.015651
-0.00182449
0.0174467
-0.00178226
0.0192309
-0.00177034
0.0209838
-0.00173535
0.0226786
-0.00167372
0.0243064
-0.00160904
0.0258671
-0.00154244
0.0273754
-0.00148347
0.0288231
-0.00142506
0.0302133
-0.00136757
0.0315484
-0.00131139
0.0328239
-0.00125601
0.0340458
-0.00120086
0.0352125
-0.00114777
0.0363244
-0.00109425
0.0373858
-0.00104322
0.0383945
-0.000992192
0.0393533
-0.00094351
0.0402572
-0.000895159
0.0411159
-0.00084874
0.0419234
-0.000803437
0.0426859
-0.000759235
0.043403
-0.000716591
0.0440747
-0.000674699
0.044706
-0.00063425
0.045295
-0.00059465
0.0458462
-0.00055624
0.04636
-0.000518874
0.0468377
-0.000482665
0.0472815
-0.00044764
0.0476924
-0.000413911
0.0480724
-0.000381481
0.0484231
-0.000350532
0.0487467
-0.000321035
0.0490448
-0.00029307
0.0493193
-0.000266565
0.0495713
-0.000241607
0.0498028
-0.000218058
0.0500136
-0.000196039
0.0502065
-0.000175604
0.050381
-0.000156794
0.0505385
-0.000139549
0.0506807
-0.000123812
0.0508066
-0.000110057
0.0509193
-9.82595e-05
0.0510189
-8.82029e-05
0.0511052
-7.99244e-05
0.0511809
-7.35338e-05
0.0512459
-6.925e-05
0.0512996
-6.71174e-05
0.0513473
-6.72683e-05
0.0513848
-6.98539e-05
0.0514167
-7.52272e-05
0.0514454
-8.48946e-05
0.0514744
-0.000104919
0.0515233
-0.00012622
0.0515934
-0.000151754
0.0516901
-0.000186973
0.0518164
-0.000238764
-0.000335486
0.0581311
0.06398
0.0417023
0.0403009
0.0336037
0.0304868
0.0207259
0.0219661
0.0121256
0.0147408
0.00495993
0.0105584
-0.00117854
0.00712208
-0.00598339
0.00512461
-0.00921662
0.00381192
-0.0110663
0.00238769
-0.011819
0.00121894
-0.0119511
0.000308224
-0.0116527
-0.000383198
-0.0111983
-0.000691488
-0.010805
-0.00072136
-0.0102986
-0.000947027
-0.00956618
-0.00136266
-0.00863486
-0.00174157
-0.00753464
-0.00206587
-0.00627791
-0.00236417
-0.00487627
-0.00264088
-0.00334952
-0.00288727
-0.00171553
-0.00312028
6.62293e-05
-0.00338275
0.0018547
-0.00353545
0.00369699
-0.00368724
0.00558083
-0.00380699
0.00751712
-0.00391412
0.0094912
-0.00399696
0.0114878
-0.00406774
0.0134842
-0.00411855
0.015471
-0.00414963
0.017419
-0.00417503
0.0193077
-0.00416601
0.0212074
-0.00411112
0.0231017
-0.00402966
0.0249678
-0.00394855
0.0267817
-0.00385778
0.0285592
-0.00375515
0.0302871
-0.00364031
0.0319641
-0.00352037
0.0335795
-0.00341084
0.0351295
-0.00333243
0.0366536
-0.00326984
0.0381325
-0.00315918
0.0395444
-0.00302948
0.0409014
-0.00290087
0.0421944
-0.00277849
0.0434271
-0.00265894
0.0446029