/*--------------------------------*- C++ -*----------------------------------*\
  =========                 |
  \\      /  F ield         | OpenFOAM: The Open Source CFD Toolbox
   \\    /   O peration     | Website:  https://openfoam.org
    \\  /    A nd           | Version:  13
     \\/     M anipulation  |
\*---------------------------------------------------------------------------*/
FoamFile
{
    format      ascii;
    class       volScalarField;
    location    "10";
    object      rho;
}
// * * * * * * * * * * * * * * * * * * * * * * * * * * * * * * * * * * * * * //

dimensions      [1 -3 0 0 0 0 0];

internalField   nonuniform List<scalar> 
5250
(
1.40001
1.40003
1.40008
1.40023
1.40049
1.4014
1.40298
1.40834
1.4183
1.44767
1.50751
1.64764
1.93043
2.68662
5.4896
5.73237
5.67654
5.66997
5.69422
5.7775
5.86058
5.91298
5.95411
5.98749
6.01489
1.40001
1.40003
1.40009
1.40019
1.40056
1.40121
1.40333
1.40744
1.41963
1.44486
1.50934
1.64286
1.92743
2.67024
5.45343
5.73005
5.67484
5.66763
5.69169
5.77497
5.85813
5.91092
5.95298
5.98725
6.01573
1.40001
1.40003
1.40008
1.40021
1.40049
1.40131
1.40298
1.40791
1.41806
1.44571
1.50498
1.64012
1.91766
2.63762
5.37292
5.72471
5.66995
5.6586
5.68172
5.76328
5.8457
5.89741
5.94044
5.97427
6.00211
1.40001
1.40003
1.40008
1.40019
1.40051
1.40117
1.40309
1.40719
1.41826
1.44303
1.50314
1.63176
1.90443
2.58831
5.24604
5.71829
5.66317
5.6429
5.6643
5.74217
5.82283
5.87333
5.91395
5.94819
5.97726
1.40001
1.40003
1.40008
1.40018
1.40049
1.40112
1.40295
1.40686
1.41745
1.44111
1.49874
1.62234
1.8853
2.52508
5.06917
5.71288
5.65571
5.62122
5.64016
5.7132
5.79083
5.84013
5.87859
5.91078
5.94111
1.40001
1.40003
1.40007
1.40018
1.40043
1.40112
1.40261
1.40681
1.41574
1.43979
1.49185
1.61174
1.85998
2.4497
4.8362
5.71243
5.64909
5.59349
5.6089
5.67568
5.74834
5.79348
5.83011
5.86008
5.89172
1.40001
1.40002
1.40006
1.40017
1.4004
1.40104
1.40241
1.4063
1.41449
1.43697
1.485
1.59757
1.82992
2.36329
4.54083
5.72184
5.6458
5.56068
5.57155
5.62953
5.69711
5.73437
5.76381
5.78859
5.8207
1.40001
1.40002
1.40006
1.40016
1.40035
1.40098
1.4021
1.40587
1.41284
1.43399
1.47665
1.58136
1.79411
2.26844
4.17737
5.74227
5.64841
5.52373
5.52895
5.57352
5.63239
5.66054
5.67841
5.6908
5.7185
1.40001
1.40002
1.40005
1.40014
1.40032
1.40085
1.40189
1.40516
1.41143
1.43007
1.4682
1.56215
1.75432
2.16916
3.75203
5.77438
5.66034
5.48875
5.48533
5.5128
5.55639
5.56742
5.566
5.55296
5.55854
1.40001
1.40002
1.40005
1.40011
1.40031
1.40065
1.40186
1.40395
1.41097
1.42415
1.46198
1.53882
1.71449
2.07098
3.27701
5.78685
5.66978
5.46209
5.44019
5.44733
5.46804
5.4589
5.42869
5.36028
5.30624
1.40001
1.40002
1.40004
1.40011
1.40023
1.40065
1.40138
1.40391
1.40839
1.42277
1.4507
1.52407
1.67255
1.98956
2.8947
5.6707
5.62552
5.44794
5.38612
5.3788
5.36839
5.33577
5.24655
5.03776
4.44317
1.40001
1.40002
1.40003
1.4001
1.4002
1.40057
1.4012
1.40337
1.40731
1.41972
1.44423
1.50874
1.64036
1.92355
2.65122
5.32104
5.49341
5.41464
5.32588
5.304
5.27141
5.2044
5.05991
4.76471
4.14274
1.40001
1.40001
1.40003
1.40008
1.40017
1.40049
1.40102
1.40293
1.4062
1.41718
1.43786
1.49487
1.6099
1.86267
2.44954
4.80414
5.40861
5.36969
5.26581
5.22373
5.17434
5.07995
4.89364
4.59174
4.12133
1.40001
1.40001
1.40003
1.40007
1.40015
1.40041
1.40086
1.40248
1.40521
1.41458
1.43193
1.48105
1.57997
1.80061
2.2753
4.21197
5.36879
5.33507
5.22596
5.14634
5.08195
4.96834
4.78177
4.50391
4.1394
1.40001
1.40001
1.40003
1.40005
1.40014
1.4003
1.40082
1.40176
1.40493
1.41065
1.42853
1.46391
1.55338
1.73448
2.12027
3.56479
5.36239
5.32605
5.203
5.08383
4.99556
4.87898
4.7027
4.46053
4.15773
1.40001
1.40001
1.40002
1.40004
1.40011
1.40024
1.40065
1.40143
1.40382
1.40867
1.42229
1.45129
1.52282
1.6717
1.97871
2.85929
5.3016
5.30298
5.20895
5.04247
4.93456
4.814
4.65075
4.43598
4.1801
1.40001
1.40001
1.40002
1.40004
1.40009
1.4002
1.40052
1.40113
1.40316
1.40673
1.41846
1.44075
1.50125
1.62344
1.88831
2.53044
4.92504
5.22496
5.16684
5.01374
4.8848
4.76945
4.61765
4.42913
4.20704
1.40001
1.40001
1.40001
1.40003
1.40006
1.40017
1.40037
1.40101
1.40223
1.40597
1.41355
1.43464
1.47925
1.58522
1.80198
2.28417
4.20753
5.12319
5.09683
4.99811
4.85688
4.73701
4.60313
4.43954
4.24483
1.40001
1.40001
1.40001
1.40002
1.40006
1.40012
1.40032
1.40073
1.40185
1.40442
1.41092
1.42639
1.46302
1.54603
1.72356
2.08648
3.43743
5.06939
5.06765
5.00559
4.86036
4.72872
4.60586
4.45906
4.29333
1.40001
1.40001
1.40001
1.40002
1.40005
1.40009
1.40025
1.40054
1.40143
1.40325
1.40836
1.41949
1.44806
1.51038
1.65047
1.92563
2.67347
4.89738
5.08641
5.02571
4.88819
4.7471
4.6256
4.4903
4.35838
1.40001
1.40001
1.40001
1.40002
1.40004
1.40007
1.40019
1.4004
1.40111
1.4024
1.40652
1.41451
1.43748
1.48468
1.59784
1.82492
2.34822
4.3492
5.05039
5.01874
4.92102
4.77864
4.65936
4.55064
4.44823
1.40001
1.40001
1.40001
1.40001
1.40003
1.40006
1.40014
1.40031
1.40083
1.40178
1.40496
1.41071
1.42865
1.46381
1.5532
1.73251
2.10863
3.53488
4.97405
5.00908
4.95473
4.8285
4.71786
4.63877
4.5592
1.40001
1.40001
1.40001
1.40001
1.40002
1.40005
1.4001
1.40024
1.40058
1.40136
1.40347
1.40799
1.42042
1.44691
1.51231
1.64917
1.92132
2.66149
4.78678
5.05345
5.00976
4.91965
4.82728
4.76021
4.68993
1.40001
1.40001
1.40001
1.40001
1.40002
1.40004
1.40007
1.40018
1.40041
1.40105
1.40245
1.40616
1.41466
1.43581
1.48377
1.59232
1.81564
2.31927
4.22444
5.04875
5.07509
5.03811
4.96559
4.89747
4.82712
1.40001
1.40001
1.40001
1.40001
1.40001
1.40003
1.40005
1.40014
1.40029
1.4008
1.40172
1.40472
1.41037
1.42725
1.4614
1.54691
1.72017
2.08236
3.37679
4.98537
5.19845
5.16891
5.11661
5.04856
4.96972
1.40001
1.40001
1.40001
1.40001
1.40001
1.40002
1.40004
1.4001
1.40022
1.40057
1.40127
1.40343
1.40748
1.42003
1.44453
1.5092
1.64053
1.9098
2.61729
4.76946
5.33519
5.31602
5.27493
5.20748
5.10212
1.40001
1.40001
1.40001
1.40001
1.40001
1.40002
1.40003
1.40007
1.40018
1.40039
1.40107
1.40227
1.40633
1.41368
1.43634
1.4808
1.59148
1.81123
2.3187
4.20748
5.38896
5.46896
5.44019
5.37068
5.23263
1.40001
1.40001
1.40001
1.40001
1.40001
1.40001
1.40003
1.40006
1.40013
1.40032
1.40073
1.40193
1.40432
1.41147
1.42589
1.46494
1.54681
1.72965
2.10708
3.39576
5.41746
5.6286
5.59593
5.49714
5.3304
1.40001
1.40001
1.40001
1.40001
1.40001
1.40001
1.40002
1.40005
1.4001
1.40026
1.40055
1.40154
1.40329
1.4091
1.41994
1.45154
1.51577
1.66587
1.96288
2.79578
5.30236
5.75447
5.72377
5.60913
5.40737
1.40001
1.40001
1.40001
1.40001
1.40001
1.40001
1.40002
1.40004
1.40009
1.4002
1.40049
1.40119
1.40286
1.40721
1.41706
1.44227
1.49844
1.62559
1.89066
2.55765
4.96883
5.77064
5.76138
5.65372
5.43559
1.40001
1.40001
1.40001
1.40001
1.40001
1.40001
1.40002
1.40003
1.40008
1.40016
1.40044
1.40092
1.40264
1.40556
1.41562
1.4342
1.48691
1.59343
1.83087
2.3782
4.44744
5.79954
5.78951
5.65493
5.42665
1.40001
1.40001
1.40001
1.40001
1.40001
1.40001
1.40001
1.40003
1.40006
1.40015
1.40034
1.40087
1.40208
1.40516
1.41268
1.43078
1.47383
1.57102
1.77852
2.24914
3.95143
5.90066
5.84524
5.61552
5.38926
1.40001
1.40001
1.40001
1.40001
1.40001
1.40001
1.40001
1.40002
1.40006
1.40012
1.40032
1.4007
1.4019
1.40433
1.41129
1.42632
1.46519
1.54954
1.73572
2.15065
3.48587
6.00613
5.8914
5.56673
5.35439
1.40001
1.40001
1.40001
1.40001
1.40001
1.40001
1.40001
1.40002
1.40005
1.40012
1.40027
1.40066
1.40164
1.40391
1.40992
1.42344
1.45764
1.5335
1.70014
2.05538
3.11059
6.01832
5.88575
5.53991
5.33832
1.40001
1.40001
1.40001
1.40001
1.40001
1.40001
1.40001
1.40002
1.40005
1.4001
1.40025
1.40062
1.40143
1.40376
1.40861
1.42236
1.45162
1.52431
1.67686
1.99834
2.93595
5.89274
5.80248
5.52044
5.32946
1.40001
1.40001
1.40001
1.40001
1.40001
1.40001
1.40001
1.40002
1.40004
1.4001
1.40021
1.4006
1.40127
1.4036
1.40779
1.42117
1.44748
1.51704
1.65894
1.96007
2.80125
5.68497
5.69272
5.55347
5.34141
1.40001
1.40001
1.40001
1.40001
1.40001
1.40001
1.40001
1.40002
1.40004
1.4001
1.4002
1.40056
1.40118
1.40339
1.40722
1.41997
1.44436
1.51041
1.64468
1.92895
2.70118
5.47056
5.66928
5.57879
5.35523
1.40001
1.40001
1.40001
1.40001
1.40001
1.40001
1.40001
1.40002
1.40004
1.40009
1.4002
1.4005
1.40119
1.40297
1.40728
1.4178
1.44323
1.50238
1.63275
1.90825
2.61296
5.24741
5.67248
5.59074
5.37053
1.40001
1.40001
1.40001
1.40001
1.40001
1.40001
1.40001
1.40002
1.40003
1.40009
1.40018
1.4005
1.40104
1.40299
1.40639
1.41766
1.43937
1.49855
1.61934
1.88511
2.53893
5.027
5.69801
5.61226
5.38048
1.40001
1.40001
1.40001
1.40001
1.40001
1.40001
1.40001
1.40002
1.40004
1.40007
1.40019
1.40041
1.40112
1.40249
1.40669
1.41534
1.43932
1.49051
1.61125
1.86038
2.47568
4.81026
5.73623
5.64101
5.38452
1.40001
1.40001
1.40001
1.40001
1.40001
1.40001
1.40001
1.40002
1.40003
1.40007
1.40016
1.40042
1.40095
1.4026
1.40578
1.41555
1.43539
1.48802
1.5986
1.84046
2.4179
4.59986
5.78629
5.67292
5.38307
1.40001
1.40001
1.40001
1.40001
1.40001
1.40001
1.40001
1.40002
1.40003
1.40006
1.40017
1.40036
1.40101
1.40215
1.4061
1.41335
1.43561
1.48057
1.59171
1.81788
2.3682
4.39532
5.84642
5.70295
5.38435
1.40001
1.40001
1.40001
1.40001
1.40001
1.40001
1.40001
1.40002
1.40003
1.40006
1.40015
1.40035
1.40093
1.40207
1.4057
1.41267
1.43359
1.47649
1.58224
1.79872
2.32157
4.19955
5.91537
5.73345
5.38698
1.40001
1.40001
1.40001
1.40001
1.40001
1.40001
1.40001
1.40001
1.40003
1.40006
1.40015
1.40032
1.40088
1.40198
1.40527
1.41224
1.43134
1.47313
1.57312
1.78108
2.27896
4.01504
5.98863
5.76219
5.39157
1.40001
1.40001
1.40001
1.40001
1.40001
1.40001
1.40001
1.40001
1.40003
1.40006
1.40013
1.40034
1.40075
1.40209
1.40453
1.41255
1.42815
1.47167
1.56285
1.76606
2.24056
3.83987
6.06297
5.79236
5.40134
1.40001
1.40001
1.40001
1.40001
1.40001
1.40001
1.40001
1.40001
1.40003
1.40005
1.40014
1.40029
1.40081
1.40173
1.4049
1.4107
1.42896
1.46539
1.55888
1.74844
2.20485
3.67662
6.13852
5.82655
5.41394
1.40001
1.40001
1.40001
1.40001
1.40001
1.40001
1.40001
1.40001
1.40002
1.40005
1.40012
1.4003
1.40073
1.40176
1.4045
1.41063
1.42706
1.46367
1.55142
1.73644
2.16479
3.5346
6.21216
5.86137
5.42634
1.40001
1.40001
1.40001
1.40001
1.40001
1.40001
1.40001
1.40001
1.40003
1.40005
1.40013
1.40027
1.40075
1.40163
1.40448
1.41005
1.42654
1.46083
1.5472
1.72523
2.12669
3.42037
6.27397
5.8917
5.43985
1.40001
1.40001
1.40001
1.40001
1.40001
1.40001
1.40001
1.40001
1.40002
1.40005
1.40012
1.40028
1.4007
1.40169
1.40416
1.41035
1.42498
1.46071
1.54191
1.71845
2.09564
3.3342
6.31217
5.91288
5.45297
1.40001
1.40001
1.40001
1.40001
1.40001
1.40001
1.40001
1.40001
1.40002
1.40005
1.40011
1.4003
1.40063
1.4018
1.40389
1.41069
1.42401
1.46117
1.53891
1.71552
2.07929
3.2836
6.32987
5.92721
5.4629
2.2725
1.86421
2.16291
1.98053
1.88663
1.86788
1.85891
1.85061
1.83327
1.81414
1.80533
1.80189
1.80119
1.80255
1.80779
1.81712
1.83195
1.85165
1.87501
1.90093
1.92944
1.95872
1.9897
2.0208
2.05303
2.08461
2.11575
2.1455
2.17366
2.20099
2.22709
2.2502
2.2699
2.28899
2.30652
2.32233
2.33509
2.34747
2.35497
2.36281
2.36696
2.37236
2.374
2.37448
2.37275
2.371
2.36594
2.36126
2.35483
2.34733
2.33875
2.3294
2.3184
2.3076
2.29482
2.2825
2.26857
2.25496
2.23993
2.22473
2.20912
2.19267
2.17643
2.15923
2.14224
2.1247
2.10715
2.08945
2.0717
2.05387
2.03611
2.01831
2.00069
1.98308
1.96575
1.94852
1.93163
1.91488
1.89858
1.88237
1.86682
1.8513
1.83656
1.82201
1.8082
1.79488
1.78237
1.77046
1.75971
1.74976
1.7412
1.73416
1.72868
1.72556
1.72536
1.72572
1.72684
1.72933
1.73354
1.74346
2.80507
2.43819
2.35849
2.14142
1.91766
1.86445
1.81224
1.7503
1.71876
1.69444
1.68002
1.67402
1.67458
1.68114
1.68954
1.70223
1.7214
1.74853
1.7813
1.81709
1.85398
1.8892
1.92559
1.96322
2.00328
2.04257
2.08138
2.11974
2.15589
2.19077
2.22332
2.25334
2.28266
2.30919
2.33544
2.35769
2.37904
2.39579
2.41088
2.42329
2.43428
2.443
2.45119
2.45431
2.45714
2.45772
2.4571
2.45525
2.45118
2.44637
2.43964
2.43235
2.42335
2.41364
2.40275
2.39076
2.3783
2.36446
2.35052
2.33539
2.32
2.30393
2.28734
2.27045
2.25301
2.2354
2.2174
2.19922
2.18087
2.16235
2.14388
2.12526
2.10688
2.0884
2.07029
2.05211
2.0344
2.01664
1.99939
1.98226
1.96553
1.94926
1.93324
1.91795
1.9031
1.88885
1.87554
1.86271
1.85118
1.84056
1.83124
1.82366
1.81763
1.81416
1.81401
1.8143
1.81547
1.8182
1.82273
1.83474
3.31984
2.86067
2.61871
2.42009
2.2221
2.05972
1.96949
1.85576
1.77503
1.72269
1.6926
1.67981
1.67674
1.67497
1.67122
1.6793
1.69803
1.72735
1.7652
1.80755
1.85201
1.89795
1.9456
1.99449
2.04499
2.096
2.14682
2.19559
2.2433
2.28872
2.33153
2.37213
2.40989
2.445
2.47791
2.50667
2.53327
2.55497
2.57517
2.59101
2.60491
2.61678
2.62681
2.63291
2.63638
2.63778
2.63848
2.63645
2.63373
2.62792
2.62215
2.61297
2.60452
2.59247
2.58151
2.56715
2.55392
2.53774
2.52258
2.50493
2.48821
2.46928
2.45134
2.43139
2.41251
2.3919
2.37236
2.35145
2.33147
2.31053
2.29032
2.26956
2.24932
2.2289
2.20885
2.18891
2.16917
2.1499
2.13063
2.1121
2.09363
2.0758
2.05839
2.0415
2.02554
2.01
1.99549
1.98178
1.96916
1.95782
1.94776
1.93969
1.93338
1.92985
1.92995
1.93052
1.93214
1.93562
1.94103
1.9563
3.5834
3.13108
2.83794
2.6281
2.46413
2.32365
2.21762
2.13469
2.04871
1.96684
1.9099
1.86661
1.84528
1.83409
1.83161
1.84189
1.86112
1.88944
1.92501
1.9677
2.01519
2.06709
2.11981
2.17451
2.23048
2.28638
2.34158
2.3947
2.44575
2.4931
2.53734
2.5772
2.61409
2.64731
2.67678
2.70347
2.72587
2.74572
2.76138
2.77446
2.78438
2.79334
2.79991
2.80332
2.80237
2.79979
2.7965
2.79109
2.78482
2.77588
2.76649
2.75458
2.74251
2.72825
2.71387
2.69776
2.68146
2.66388
2.64604
2.62725
2.60817
2.58834
2.56826
2.5475
2.52667
2.50518
2.48382
2.46185
2.4402
2.41806
2.39632
2.37426
2.35263
2.33092
2.3095
2.28835
2.2673
2.24669
2.22636
2.20648
2.1872
2.16813
2.14997
2.13214
2.11489
2.09873
2.083
2.06867
2.05529
2.04315
2.03294
2.02404
2.01767
2.01438
2.0142
2.01435
2.0164
2.02069
2.02589
2.04348
3.73709
3.34025
3.04607
2.83361
2.67634
2.54952
2.45189
2.36954
2.29935
2.22796
2.17562
2.13528
2.11411
2.10424
2.10284
2.10853
2.12227
2.14937
2.18334
2.2226
2.26523
2.31013
2.35741
2.40519
2.4529
2.4993
2.544
2.58641
2.62606
2.66319
2.69677
2.72851
2.75622
2.78179
2.80403
2.82433
2.84095
2.85542
2.86627
2.8749
2.88085
2.8863
2.88986
2.8908
2.88704
2.88121
2.87476
2.86653
2.85759
2.84647
2.83471
2.82101
2.80689
2.79113
2.77508
2.75766
2.74006
2.72129
2.7025
2.68267
2.66293
2.64223
2.62171
2.60027
2.57913
2.55714
2.53546
2.51323
2.49116
2.46896
2.44672
2.42471
2.40268
2.38085
2.35926
2.33781
2.31697
2.2963
2.27606
2.2563
2.23668
2.21807
2.19947
2.18201
2.16489
2.14881
2.13366
2.11941
2.10677
2.09507
2.0857
2.07768
2.07241
2.07084
2.07101
2.07208
2.07465
2.08068
2.0872
2.10765
3.84739
3.51498
3.24124
3.0374
2.88306
2.76468
2.66997
2.59028
2.51728
2.45002
2.39175
2.34788
2.31774
2.30106
2.29808
2.30122
2.30949
2.32641
2.35607
2.39009
2.42617
2.46356
2.5017
2.54018
2.57853
2.61616
2.65279
2.68781
2.72098
2.75194
2.78127
2.80763
2.83253
2.85454
2.87477
2.89229
2.9077
2.92019
2.93059
2.93739
2.94319
2.94706
2.95084
2.95078
2.94783
2.9411
2.93497
2.92606
2.91757
2.90632
2.89487
2.8811
2.86679
2.85088
2.83427
2.81658
2.79819
2.7789
2.75916
2.7385
2.71769
2.696
2.67419
2.65178
2.62911
2.60628
2.58316
2.56011
2.53703
2.51395
2.4912
2.46831
2.44629
2.424
2.40242
2.38078
2.35947
2.33858
2.31775
2.29766
2.27762
2.25852
2.23964
2.22176
2.20449
2.18808
2.17288
2.15855
2.14591
2.13468
2.12521
2.11832
2.11337
2.1132
2.11325
2.11475
2.11754
2.1257
2.13365
2.1569
3.93834
3.66515
3.42581
3.23518
3.09057
2.97687
2.88418
2.80215
2.7257
2.65283
2.58782
2.5336
2.49432
2.46932
2.45792
2.45891
2.4634
2.47214
2.48973
2.5191
2.55194
2.58548
2.61959
2.65391
2.6884
2.72289
2.75664
2.78972
2.8211
2.85092
2.87878
2.90443
2.92826
2.94938
2.96887
2.98524
3.00007
3.0113
3.02097
3.02644
3.03116
3.03395
3.03633
3.03543
3.03116
3.02368
3.01552
3.00548
2.99498
2.98282
2.96984
2.9554
2.94002
2.92359
2.9062
2.88819
2.86908
2.84967
2.82919
2.80843
2.78692
2.76488
2.7426
2.71948
2.69656
2.67279
2.64937
2.62547
2.60185
2.57828
2.55496
2.53192
2.50876
2.48607
2.46347
2.44109
2.41925
2.3973
2.37634
2.35519
2.33517
2.31526
2.2964
2.27816
2.26077
2.2446
2.22925
2.21573
2.20324
2.19308
2.1846
2.17869
2.1764
2.17636
2.17733
2.1798
2.18449
2.19571
2.20494
2.2303
4.0257
3.80006
3.59864
3.43029
3.29498
3.18593
3.09156
3.00467
2.92096
2.84178
2.76755
2.70494
2.65427
2.61977
2.59814
2.59062
2.59216
2.59732
2.60581
2.62305
2.65017
2.68016
2.71096
2.74127
2.77185
2.80178
2.83172
2.86061
2.88859
2.91518
2.94001
2.96297
2.98383
3.00241
3.01898
3.03326
3.04537
3.05494
3.06258
3.06683
3.07011
3.07232
3.07377
3.07283
3.06834
3.06135
3.0527
3.04269
3.03138
3.01913
3.00545
2.99096
2.97505
2.95844
2.9407
2.92218
2.903
2.88289
2.86258
2.84131
2.81999
2.79796
2.77573
2.75333
2.7305
2.70798
2.685
2.66252
2.63982
2.61724
2.59476
2.57197
2.54963
2.52683
2.50475
2.48233
2.46065
2.43899
2.4179
2.39738
2.37716
2.35805
2.3392
2.32171
2.30478
2.28926
2.27499
2.26209
2.25126
2.24195
2.23553
2.23111
2.23093
2.23118
2.23271
2.23552
2.24357
2.25519
2.2653
2.28961
4.11628
3.93545
3.76573
3.61955
3.49487
3.38589
3.28727
3.19242
3.10171
3.014
2.93401
2.86269
2.80506
2.76054
2.73131
2.71411
2.70849
2.71014
2.71451
2.72136
2.7356
2.75889
2.78502
2.81166
2.83817
2.86467
2.89057
2.91629
2.94113
2.96523
2.98785
3.00897
3.02826
3.04554
3.06081
3.07397
3.08504
3.0938
3.10065
3.10414
3.10671
3.1083
3.10889
3.10727
3.10209
3.09484
3.08548
3.07484
3.06271
3.04956
3.03535
3.02007
3.00389
2.98669
2.96862
2.94985
2.93013
2.91003
2.88896
2.86759
2.84555
2.82305
2.80037
2.777
2.75392
2.73019
2.70703
2.68333
2.66007
2.63662
2.61335
2.59028
2.56718
2.54456
2.52187
2.4998
2.47781
2.45643
2.43548
2.415
2.39544
2.37625
2.35838
2.34097
2.32511
2.31029
2.29705
2.28562
2.27589
2.26875
2.26365
2.26238
2.26225
2.26333
2.26605
2.2718
2.28189
2.29492
2.30474
2.32863
4.21695
4.07249
3.93076
3.7993
3.67948
3.56827
3.46257
3.36093
3.26294
3.1709
3.08546
3.01084
2.94643
2.89644
2.85779
2.83319
2.817
2.81099
2.80895
2.81279
2.81693
2.82666
2.84461
2.86575
2.88843
2.91146
2.93379
2.95649
2.97823
2.99968
3.01998
3.03901
3.05663
3.07223
3.0861
3.09782
3.10771
3.11553
3.12136
3.124
3.126
3.12695
3.12727
3.12518
3.12023
3.11331
3.10417
3.09384
3.08156
3.06848
3.05408
3.03869
3.0227
3.00531
2.98785
2.96885
2.94986
2.92968
2.90919
2.88811
2.86634
2.84451
2.8218
2.79947
2.77647
2.75394
2.7309
2.70819
2.68529
2.66246
2.63988
2.61709
2.59492
2.57241
2.55065
2.52873
2.50752
2.48653
2.46613
2.44645
2.42727
2.40929
2.39176
2.37575
2.36063
2.34724
2.33544
2.32543
2.31789
2.31241
2.31027
2.30993
2.31073
2.31292
2.31763
2.32708
2.33771
2.35096
2.35944
2.38142
4.33554
4.21529
4.09202
3.96782
3.84737
3.73028
3.61755
3.50926
3.40686
3.31159
3.22459
3.14688
3.08011
3.02397
2.97997
2.94578
2.92171
2.90539
2.89597
2.89061
2.89108
2.89418
2.89925
2.90984
2.9272
2.94535
2.96473
2.98426
3.00361
3.02286
3.04078
3.05833
3.07389
3.08844
3.10101
3.11211
3.12125
3.12853
3.13386
3.13639
3.13761
3.13868
3.13832
3.13609
3.13114
3.12417
3.11554
3.10497
3.09299
3.07966
3.06501
3.04975
3.0331
3.01625
2.998
2.97958
2.96
2.94005
2.91938
2.89806
2.87647
2.85412
2.83203
2.80932
2.78696
2.76414
2.74155
2.71877
2.696
2.67343
2.65069
2.6285
2.60608
2.58435
2.56252
2.54135
2.5204
2.50002
2.48033
2.46113
2.44317
2.42561
2.40965
2.39452
2.38124
2.36937
2.35952
2.35186
2.34644
2.34394
2.3436
2.34427
2.34616
2.35083
2.35885
2.37015
2.38017
2.39288
2.39924
2.41868
4.46496
4.35739
4.2405
4.118
3.99364
3.87226
3.75414
3.64304
3.53927
3.44306
3.35584
3.27687
3.20826
3.148
3.09835
3.05643
3.02405
2.99821
2.9801
2.96634
2.95891
2.95372
2.95577
2.95845
2.96377
2.97403
2.98997
3.00432
3.02107
3.03774
3.05402
3.06946
3.08356
3.09677
3.10853
3.11882
3.12758
3.13447
3.13979
3.14183
3.14327
3.14421
3.14388
3.14179
3.1368
3.13037
3.12187
3.11172
3.10019
3.0869
3.07298
3.05745
3.04161
3.02453
3.00695
2.9886
2.96944
2.94995
2.92941
2.90879
2.88721
2.86579
2.84374
2.82176
2.7995
2.77708
2.75477
2.73206
2.70981
2.68708
2.665
2.64261
2.6208
2.59909
2.57772
2.55695
2.53634
2.51678
2.49743
2.4795
2.46201
2.44595
2.43107
2.41766
2.40612
2.39628
2.3888
2.38347
2.38087
2.3805
2.38104
2.38285
2.38652
2.39561
2.40483
2.41596
2.42479
2.43547
2.4399
2.45641
4.60351
4.49724
4.37777
4.25034
4.12111
3.99469
3.87468
3.76182
3.65885
3.56374
3.47832
3.39989
3.32997
3.26709
3.21209
3.16415
3.12384
3.09025
3.0633
3.04173
3.02555
3.01296
3.00614
3.00164
3.00404
3.00635
3.01159
3.02229
3.0329
3.04755
3.06202
3.0759
3.08878
3.10098
3.11178
3.12148
3.12975
3.13636
3.14138
3.14341
3.14495
3.14558
3.1454
3.14293
3.13823
3.13195
3.12359
3.1141
3.10249
3.08995
3.0758
3.0607
3.04475
3.02767
3.01036
2.99174
2.9732
2.95334
2.93356
2.91274
2.89204
2.87074
2.8493
2.82771
2.80572
2.78394
2.76167
2.73982
2.71761
2.69579
2.67395
2.65233
2.63111
2.60995
2.58954
2.56915
2.5498
2.53065
2.51277
2.49547
2.4794
2.46459
2.45127
2.43981
2.43013
2.42283
2.41771
2.4153
2.41507
2.41563
2.4172
2.4223
2.43017
2.4405
2.44986
2.45975
2.46717
2.47534
2.47854
2.49181
4.73721
4.62544
4.50006
4.36799
4.23662
4.10911
3.99022
3.87869
3.77731
3.68362
3.59865
3.52025
3.44876
3.38305
3.32365
3.26993
3.22259
3.18129
3.14582
3.11622
3.09158
3.07239
3.05739
3.04698
3.04063
3.03777
3.03972
3.04294
3.04787
3.05724
3.06784
3.07944
3.09089
3.10182
3.11175
3.1207
3.12829
3.13457
3.13931
3.1416
3.14289
3.14371
3.14366
3.14137
3.13737
3.13116
3.12369
3.11435
3.10352
3.09139
3.0776
3.06314
3.04712
3.03078
3.01316
2.99527
2.97643
2.95712
2.93729
2.91699
2.89658
2.87556
2.85469
2.83317
2.81192
2.79019
2.76864
2.74699
2.72531
2.70398
2.68244
2.66161
2.64057
2.62044
2.60029
2.58112
2.56236
2.54454
2.5278
2.51172
2.49735
2.48409
2.47303
2.46345
2.45651
2.45155
2.44946
2.44931
2.44987
2.45185
2.45675
2.46562
2.47489
2.48482
2.49324
2.50109
2.50669
2.51214
2.51429
2.52426
4.86856
4.74754
4.61397
4.47706
4.34336
4.21649
4.09907
3.99077
3.89158
3.8001
3.71566
3.63702
3.56358
3.49526
3.43146
3.37314
3.31957
3.27202
3.22958
3.19325
3.16159
3.13558
3.11364
3.09655
3.08328
3.07425
3.06884
3.06641
3.06827
3.07119
3.0748
3.08215
3.09136
3.10041
3.10957
3.11771
3.12493
3.13092
3.13558
3.13788
3.13901
3.1401
3.13974
3.13793
3.13387
3.12801
3.12092
3.11187
3.10195
3.09007
3.07737
3.06309
3.04795
3.03178
3.01468
2.99702
2.9783
2.95942
2.93965
2.91997
2.89959
2.87924
2.85847
2.83756
2.81663
2.79537
2.77445
2.75311
2.73231
2.71121
2.6907
2.67019
2.6502
2.63068
2.61156
2.59345
2.5757
2.5596
2.54367
2.52976
2.5167
2.50609
2.49678
2.49028
2.48559
2.48413
2.48405
2.48476
2.48687
2.493
2.50164
2.51142
2.52058
2.52927
2.53587
2.54163
2.54498
2.54793
2.54945
2.5567
4.97949
4.84723
4.70963
4.57334
4.44292
4.32029
4.20723
4.10246
4.006
3.91594
3.83147
3.75198
3.67643
3.60535
3.5382
3.47549
3.41735
3.36408
3.31605
3.27309
3.23514
3.20187
3.17337
3.14904
3.12927
3.11311
3.10128
3.09245
3.08768
3.08595
3.08618
3.08881
3.09231
3.09819
3.10574
3.11281
3.11955
3.12508
3.12972
3.13177
3.13308
3.13402
3.13362
3.13217
3.12787
3.12269
3.11548
3.10736
3.09762
3.08658
3.07438
3.06064
3.04621
3.03024
3.01391
2.99624
2.9783
2.95958
2.94057
2.92128
2.90146
2.88171
2.8613
2.84117
2.82044
2.80002
2.7793
2.75873
2.73832
2.71786
2.69804
2.67807
2.65914
2.64018
2.62256
2.60518
2.58955
2.57419
2.56071
2.54828
2.5381
2.52945
2.52347
2.51913
2.51854
2.51847
2.51947
2.52212
2.52952
2.53833
2.54853
2.5572
2.56586
2.57204
2.57701
2.57989
2.58192
2.58292
2.58403
2.58857
5.08603
4.94161
4.80062
4.66673
4.54123
4.42434
4.31609
4.21516
4.12041
4.03117
3.94602
3.86506
3.78766
3.71368
3.6437
3.57709
3.51481
3.45682
3.40339
3.35474
3.31057
3.27117
3.23621
3.20567
3.17928
3.1569
3.13842
3.12357
3.11247
3.10466
3.10033
3.09711
3.09718
3.09956
3.10207
3.10593
3.11112
3.11546
3.11957
3.12136
3.12306
3.12366
3.12394
3.12234
3.11878
3.11388
3.10739
3.1
3.09074
3.08068
3.06873
3.056
3.04172
3.02663
3.01052
2.99352
2.97611
2.95791
2.9397
2.92079
2.90193
2.88257
2.86308
2.84348
2.82348
2.80382
2.78358
2.764
2.74392
2.72465
2.70516
2.68657
2.66818
2.65075
2.63406
2.61851
2.60405
2.59073
2.5791
2.56934
2.56152
2.55606
2.55267
2.55235
2.55248
2.55406
2.55765
2.56617
2.57524
2.58553
2.59449
2.60243
2.60897
2.61299
2.61563
2.61684
2.61717
2.61705
2.61661
2.61947
5.16983
5.02089
4.88335
4.7557
4.63817
4.52797
4.42472
4.32671
4.23338
4.14399
4.05802
3.97544
3.89593
3.81973
3.74678
3.67724
3.61123
3.54929
3.49143
3.43779
3.38837
3.34342
3.30269
3.26606
3.23356
3.20487
3.17999
3.15882
3.1414
3.12716
3.11695
3.10875
3.10281
3.10024
3.09886
3.10038
3.10175
3.1041
3.10666
3.10861
3.11
3.1107
3.11097
3.1091
3.10625
3.10154
3.096
3.08886
3.08059
3.07103
3.06001
3.04802
3.0345
3.0203
3.00473
2.9887
2.9718
2.95447
2.93676
2.91848
2.90025
2.88133
2.8627
2.84345
2.82451
2.80523
2.78617
2.76718
2.74831
2.72997
2.71171
2.69444
2.67739
2.66166
2.64657
2.63312
2.62027
2.60955
2.60034
2.59347
2.58856
2.58645
2.58622
2.58654
2.589
2.59417
2.60309
2.61276
2.62274
2.63223
2.63948
2.64634
2.64968
2.6522
2.65246
2.65251
2.65237
2.65063
2.64683
2.64915
5.23182
5.0846
4.95682
4.84027
4.73209
4.62956
4.53111
4.43578
4.34329
4.25386
4.16715
4.08332
4.00215
3.92376
3.84828
3.77586
3.70692
3.64112
3.57928
3.52113
3.46716
3.41694
3.3708
3.32841
3.28991
3.25515
3.22416
3.19676
3.17286
3.15243
3.13563
3.12245
3.11116
3.10261
3.09706
3.09379
3.0919
3.09164
3.09171
3.09266
3.09266
3.0928
3.09191
3.09026
3.08748
3.08327
3.07824
3.0715
3.06409
3.05491
3.04497
3.03353
3.02114
3.00773
2.99316
2.97813
2.962
2.94574
2.92865
2.91143
2.89384
2.87588
2.85809
2.83963
2.82182
2.80326
2.78559
2.76739
2.75018
2.73278
2.7165
2.70035
2.68562
2.67134
2.65903
2.64698
2.6373
2.6289
2.62327
2.619
2.61845
2.61847
2.61928
2.62269
2.62993
2.63951
2.64985
2.65967
2.66943
2.67637
2.68313
2.68636
2.68844
2.68858
2.68848
2.68753
2.68555
2.68163
2.67496
2.67694
5.25892
5.12336
5.01144
4.9101
4.81379
4.71953
4.62657
4.53469
4.44385
4.35447
4.26724
4.18228
4.10004
4.02038
3.9436
3.86939
3.79819
3.72963
3.66448
3.60268
3.54439
3.48974
3.43843
3.39105
3.34674
3.30641
3.2692
3.23579
3.20577
3.17947
3.1564
3.13689
3.1208
3.10571
3.09479
3.08618
3.08029
3.0759
3.07317
3.07126
3.06964
3.06833
3.06632
3.06436
3.06104
3.05744
3.05232
3.04655
3.03951
3.03139
3.02236
3.01194
3.00089
2.98845
2.97544
2.96144
2.94677
2.93174
2.91577
2.90002
2.88317
2.86689
2.84964
2.83304
2.81578
2.79917
2.78223
2.76602
2.74978
2.73448
2.71948
2.70573
2.69262
2.68144
2.67062
2.66205
2.65489
2.65042
2.64779
2.64776
2.64838
2.65033
2.65564
2.66428
2.67457
2.68565
2.69534
2.70534
2.71211
2.71868
2.72181
2.72349
2.72357
2.72324
2.72229
2.71928
2.71474
2.70936
2.7013
2.70233
5.26472
5.15183
5.05965
4.97288
4.88593
4.79815
4.70924
4.62028
4.53182
4.44432
4.35813
4.27373
4.19092
4.11044
4.03178
3.95591
3.88239
3.8118
3.74414
3.67942
3.61762
3.55871
3.50297
3.45039
3.40108
3.35529
3.31273
3.27373
3.23804
3.20562
3.17656
3.15066
3.12836
3.10919
3.0916
3.07788
3.06682
3.05817
3.05147
3.04607
3.04223
3.03862
3.03586
3.03262
3.02962
3.0259
3.02169
3.01676
3.01072
3.00402
2.99595
2.98709
2.97703
2.96601
2.95422
2.94125
2.92809
2.91372
2.89943
2.88412
2.86903
2.85322
2.83774
2.82188
2.8064
2.79088
2.77579
2.76107
2.74685
2.7334
2.72079
2.70919
2.6992
2.68997
2.6825
2.67706
2.67349
2.67293
2.67328
2.67462
2.67787
2.68567
2.69561
2.70618
2.71793
2.72759
2.73774
2.74454
2.75093
2.75401
2.75543
2.7555
2.75518
2.75374
2.75082
2.74561
2.73959
2.73313
2.72415
2.72415
5.2499
5.16065
5.08719
5.01503
4.9382
4.85807
4.77544
4.69145
4.60692
4.52216
4.43765
4.35389
4.27127
4.1902
4.11094
4.03371
3.95854
3.88566
3.81517
3.74723
3.68231
3.6201
3.56113
3.50495
3.45195
3.40184
3.35473
3.31058
3.26941
3.23113
3.19601
3.16389
3.13489
3.10958
3.08651
3.06662
3.05017
3.03652
3.02561
3.01717
3.01031
3.00493
3.00033
2.99636
2.99265
2.98877
2.98479
2.98
2.97476
2.96852
2.96143
2.95352
2.94443
2.9348
2.92404
2.9129
2.90068
2.88815
2.87484
2.86134
2.84735
2.83334
2.81915
2.80511
2.79115
2.77757
2.76434
2.75173
2.7398
2.72878
2.7188
2.71033
2.70294
2.69694
2.69311
2.69159
2.6919
2.69319
2.696
2.702
2.71111
2.72264
2.73365
2.74605
2.75585
2.76607
2.77306
2.77937
2.78251
2.78379
2.78391
2.7835
2.78219
2.77859
2.77375
2.76722
2.76019
2.75284
2.74319
2.74224
5.24041
5.16742
5.10378
5.03829
4.96847
4.89445
4.81754
4.73864
4.65824
4.57727
4.49586
4.41453
4.33372
4.25361
4.17484
4.09734
4.02184
3.9481
3.87673
3.80766
3.74084
3.6763
3.61374
3.5536
3.49575
3.44047
3.38788
3.33818
3.29123
3.24754
3.20681
3.16937
3.13543
3.10462
3.07808
3.0529
3.03166
3.01347
2.99811
2.98524
2.97457
2.96601
2.95887
2.95313
2.94802
2.9435
2.93902
2.93438
2.92942
2.92378
2.91764
2.91058
2.90295
2.89445
2.88532
2.87555
2.86505
2.85409
2.84252
2.83068
2.81848
2.80624
2.79393
2.7818
2.76992
2.75847
2.7476
2.73744
2.72826
2.72006
2.71353
2.70798
2.70423
2.70174
2.70295
2.70394
2.70655
2.71108
2.72065
2.73081
2.7437
2.7553
2.76832
2.77866
2.78904
2.79638
2.80275
2.80614
2.80734
2.8076
2.80733
2.80581
2.80247
2.79715
2.79112
2.78361
2.77585
2.76772
2.75754
2.7558
5.23266
5.16336
5.10271
5.04106
4.97605
4.90743
4.83556
4.76115
4.68513
4.6078
4.53017
4.45205
4.37424
4.29673
4.21987
4.14391
4.06881
3.99475
3.92204
3.85071
3.78133
3.71346
3.64797
3.58465
3.52378
3.46567
3.40982
3.357
3.3064
3.25903
3.21408
3.17248
3.13369
3.09808
3.06575
3.0364
3.00955
2.98605
2.96598
2.94877
2.93441
2.92266
2.91285
2.90501
2.89817
2.89245
2.88705
2.88198
2.87686
2.87146
2.8659
2.85967
2.85326
2.84606
2.83859
2.83044
2.82182
2.81283
2.80319
2.79356
2.78325
2.77336
2.76288
2.75331
2.74331
2.73473
2.72597
2.71908
2.71242
2.70803
2.70451
2.70258
2.70297
2.70496
2.70738
2.71197
2.72013
2.73156
2.74316
2.75735
2.7698
2.78333
2.79431
2.80503
2.81279
2.81932
2.82299
2.82437
2.82458
2.8245
2.82312
2.81954
2.81467
2.80817
2.8013
2.79307
2.78468
2.77598
2.76534
2.76297
5.2235
5.15447
5.09537
5.03702
4.97522
4.91013
4.84129
4.77006
4.69697
4.62278
4.54786
4.4724
4.39645
4.3204
4.24415
4.16843
4.09315
4.01883
3.94564
3.87395
3.80406
3.73597
3.66965
3.60513
3.5425
3.48174
3.42316
3.36694
3.31297
3.26204
3.21334
3.16798
3.12497
3.08537
3.04847
3.0152
2.98444
2.95675
2.9326
2.91125
2.893
2.8773
2.86391
2.85282
2.84318
2.83547
2.82838
2.82271
2.81709
2.81212
2.80705
2.80173
2.79653
2.79033
2.78454
2.77744
2.77089
2.76309
2.75591
2.74775
2.74029
2.73212
2.72493
2.71722
2.71096
2.70446
2.6998
2.69545
2.69303
2.69211
2.69253