/*--------------------------------*- C++ -*----------------------------------*\
  =========                 |
  \\      /  F ield         | OpenFOAM: The Open Source CFD Toolbox
   \\    /   O peration     | Website:  https://openfoam.org
    \\  /    A nd           | Version:  13
     \\/     M anipulation  |
\*---------------------------------------------------------------------------*/
FoamFile
{
    format      ascii;
    class       volScalarField;
    location    "10";
    object      T;
}
// * * * * * * * * * * * * * * * * * * * * * * * * * * * * * * * * * * * * * //

dimensions      [0 0 0 1 0 0 0];

internalField   nonuniform List<scalar> 
5250
(
1.00001
1.00002
1.00006
1.00014
1.00039
1.00086
1.00231
1.00539
1.01387
1.03401
1.08828
1.23389
1.62751
2.40099
2.72784
2.73982
2.73572
2.73908
2.75093
2.76672
2.77883
2.78708
2.79376
2.79852
2.80138
1.00001
1.00002
1.00006
1.00015
1.00037
1.00088
1.00228
1.00527
1.01398
1.03321
1.08782
1.23089
1.62104
2.39259
2.72483
2.73919
2.73504
2.73827
2.75004
2.7657
2.77773
2.78595
2.79259
2.79727
2.79999
1.00001
1.00002
1.00006
1.00013
1.00039
1.0008
1.00233
1.00504
1.01375
1.03245
1.08584
1.22547
1.6061
2.37352
2.71783
2.73768
2.73328
2.73602
2.74749
2.76286
2.77459
2.78292
2.78898
2.79368
2.79666
1.00001
1.00002
1.00006
1.00013
1.00036
1.0008
1.00222
1.00487
1.0134
1.0311
1.08312
1.21699
1.58494
2.34322
2.7067
2.73559
2.73059
2.73237
2.74329
2.75826
2.76963
2.77758
2.784
2.78796
2.79046
1.00001
1.00002
1.00005
1.00013
1.00034
1.00076
1.00211
1.00464
1.01279
1.02961
1.07914
1.20612
1.55637
2.30067
2.69091
2.73303
2.72702
2.72735
2.73757
2.75181
2.76292
2.76991
2.77608
2.78019
2.78246
1.00001
1.00002
1.00005
1.00011
1.00034
1.00069
1.00203
1.00431
1.012
1.02786
1.07408
1.19275
1.52048
2.24349
2.6695
2.73003
2.72247
2.72079
2.73028
2.74343
2.75435
2.76077
2.76544
2.7688
2.77057
1.00001
1.00002
1.00005
1.0001
1.00031
1.00063
1.00188
1.00398
1.01109
1.02564
1.06821
1.17658
1.47763
2.16847
2.6411
2.72625
2.71664
2.71234
2.72098
2.73291
2.74236
2.74833
2.75203
2.75379
2.75398
1
1.00001
1.00004
1.0001
1.00027
1.0006
1.00162
1.00378
1.00969
1.02366
1.06072
1.15872
1.42728
2.0727
2.60392
2.72067
2.70868
2.70181
2.70948
2.72077
2.72857
2.73215
2.73358
2.73236
2.72835
1
1.00001
1.00004
1.00008
1.00025
1.00051
1.00148
1.00323
1.00876
1.02049
1.05374
1.13789
1.37215
1.95468
2.55639
2.7107
2.69647
2.68733
2.69426
2.70427
2.71101
2.71253
2.71011
2.70258
2.68676
1
1.00001
1.00003
1.00008
1.00019
1.0005
1.0012
1.00292
1.00738
1.01787
1.04567
1.11717
1.31369
1.81646
2.4964
2.69289
2.67797
2.66881
2.67521
2.684
2.68884
2.6876
2.67828
2.65567
2.59844
1
1.00001
1.00003
1.00006
1.00018
1.00039
1.00108
1.00246
1.00638
1.01532
1.03899
1.09932
1.26427
1.69572
2.42915
2.671
2.65797
2.6491
2.65275
2.66022
2.66334
2.65802
2.6381
2.59063
2.48542
1
1.00001
1.00002
1.00006
1.00015
1.00036
1.00089
1.00222
1.00533
1.01364
1.03318
1.08617
1.22696
1.60524
2.34465
2.64019
2.64328
2.63512
2.63253
2.63582
2.63526
2.62448
2.59483
2.53287
2.42226
1
1.00001
1.00002
1.00005
1.00014
1.00029
1.00081
1.0018
1.00481
1.01128
1.02908
1.07286
1.19361
1.51703
2.22216
2.59263
2.63373
2.62422
2.61711
2.61421
2.6084
2.59166
2.5569
2.49585
2.40294
1
1.00001
1.00002
1.00004
1.00011
1.00025
1.00068
1.00153
1.00402
1.00956
1.02435
1.06102
1.16078
1.43042
2.06825
2.53039
2.62335
2.614
2.6021
2.5947
2.58257
2.56294
2.52634
2.47239
2.39521
1
1.00001
1.00001
1.00004
1.00008
1.00023
1.00049
1.00138
1.00307
1.00817
1.01929
1.05012
1.12827
1.34432
1.88547
2.44844
2.60414
2.59818
2.58628
2.57365
2.56074
2.53912
2.50499
2.45531
2.39119
1
1
1.00001
1.00003
1.00007
1.00017
1.00043
1.001
1.00264
1.00601
1.01593
1.03777
1.09929
1.25867
1.67757
2.34422
2.56819
2.57206
2.56343
2.55101
2.53645
2.51748
2.4869
2.4439
2.38838
1
1
1.00001
1.00002
1.00005
1.00015
1.00031
1.00089
1.00194
1.0052
1.01207
1.03129
1.07791
1.20659
1.54593
2.2324
2.52842
2.55026
2.54076
2.52985
2.51734
2.49748
2.47204
2.43516
2.38844
1
1
1.00001
1.00002
1.00005
1.00011
1.00027
1.00067
1.00158
1.00413
1.00952
1.02509
1.06108
1.16273
1.4306
2.05457
2.45674
2.53172
2.52506
2.5128
2.50017
2.48322
2.45949
2.42979
2.39027
1
1
1.00001
1.00001
1.00004
1.00008
1.00022
1.00048
1.00135
1.00288
1.00809
1.01806
1.04845
1.12136
1.32599
1.83563
2.35975
2.50616
2.50963
2.50069
2.48647
2.47074
2.45067
2.42466
2.39464
1
1
1
1.00001
1.00003
1.00006
1.00016
1.00037
1.00099
1.0022
1.00597
1.01339
1.03566
1.08711
1.23156
1.60232
2.23169
2.46404
2.48816
2.48361
2.47249
2.46005
2.44324
2.42405
2.40193
1
1
1
1.00001
1.00002
1.00005
1.00012
1.00029
1.00072
1.00173
1.00441
1.01036
1.02677
1.06581
1.17384
1.45713
2.07695
2.4131
2.47173
2.4688
2.45947
2.44915
2.4379
2.42594
2.41121
1
1
1
1.00001
1.00001
1.00004
1.00008
1.00023
1.0005
1.00138
1.00311
1.0081
1.01934
1.04956
1.12677
1.33667
1.85454
2.32137
2.44932
2.45795
2.45274
2.44433
2.43814
2.43301
2.42349
1
1
1
1
1.00001
1.00003
1.00006
1.00017
1.00036
1.00103
1.00213
1.00609
1.01327
1.03575
1.08681
1.22998
1.59601
2.19183
2.41129
2.443
2.44694
2.44516
2.44327
2.44091
2.43485
1
1
1
1
1.00001
1.00002
1.00005
1.00012
1.00027
1.00074
1.00161
1.00446
1.00978
1.02645
1.06318
1.16828
1.43946
2.03399
2.36837
2.43713
2.4488
2.4517
2.45299
2.45142
2.44568
1
1
1
1
1.00001
1.00001
1.00004
1.00008
1.00021
1.00051
1.00124
1.00313
1.00739
1.01902
1.04613
1.12071
1.31606
1.80255
2.28838
2.43354
2.45731
2.46217
2.46345
2.461
2.45288
1
1
1
1
1
1.00001
1.00003
1.00006
1.00017
1.00034
1.00098
1.00208
1.00571
1.01294
1.03385
1.08336
1.21945
1.57067
2.1705
2.42406
2.46945
2.47602
2.47922
2.47443
2.46239
1
1
1
1
1
1.00001
1.00002
1.00005
1.0001
1.0003
1.00064
1.00173
1.00397
1.01024
1.02468
1.06329
1.16347
1.43266
2.02576
2.40562
2.49382
2.49751
2.49415
2.48277
2.46505
1
1
1
1
1
1.00001
1.00002
1.00003
1.00009
1.00019
1.00056
1.00115
1.00331
1.0072
1.01945
1.04634
1.1225
1.32092
1.81301
2.3585
2.52838
2.5324
2.52099
2.5002
2.47307
1
1
1
1
1
1
1.00001
1.00002
1.00007
1.00015
1.00043
1.00093
1.0025
1.00576
1.01484
1.03606
1.09326
1.24361
1.63766
2.29318
2.5535
2.56574
2.54694
2.51487
2.48173
1
1
1
1
1
1
1.00001
1.00002
1.00006
1.00013
1.00035
1.00074
1.00215
1.00455
1.01272
1.02927
1.07813
1.2023
1.54064
2.22313
2.57943
2.61063
2.58459
2.54447
2.50094
1
1
1
1
1
1
1.00001
1.00002
1.00004
1.00012
1.00026
1.00072
1.0016
1.00425
1.01008
1.02586
1.06485
1.1719
1.46063
2.10859
2.58064
2.65505
2.62335
2.57455
2.52522
1
1
1
1
1
1
1.00001
1.00002
1.00004
1.0001
1.00022
1.00062
1.00133
1.00381
1.00826
1.02285
1.05452
1.14725
1.39249
1.98188
2.57209
2.69262
2.65439
2.59977
2.55233
1
1
1
1
1
1
1.00001
1.00001
1.00003
1.00008
1.00021
1.00049
1.0013
1.00293
1.00798
1.01835
1.04881
1.12403
1.33633
1.85279
2.55293
2.72004
2.67753
2.62055
2.57749
1
1
1
1
1
1
1
1.00001
1.00003
1.00008
1.00017
1.00049
1.00101
1.00296
1.00632
1.01755
1.04129
1.11045
1.29139
1.76139
2.51129
2.72711
2.68607
2.63426
2.59864
1
1
1
1
1
1
1
1.00001
1.00003
1.00006
1.00018
1.00037
1.00111
1.00229
1.00662
1.01466
1.03974
1.09883
1.26786
1.71111
2.47587
2.73388
2.70182
2.65773
2.62269
1
1
1
1
1
1
1
1.00001
1.00003
1.00006
1.00016
1.00038
1.00094
1.00234
1.0057
1.01446
1.03575
1.09291
1.24726
1.66563
2.43004
2.72711
2.71043
2.6758
2.6408
1
1
1
1
1
1
1
1.00001
1.00003
1.00005
1.00016
1.00033
1.00092
1.00209
1.00551
1.0132
1.03388
1.08622
1.23104
1.62479
2.37467
2.71668
2.71822
2.68984
2.65443
1
1
1
1
1
1
1
1.00001
1.00002
1.00006
1.00013
1.00036
1.00077
1.00219
1.00474
1.01314
1.03066
1.08188
1.21482
1.57991
2.32393
2.7075
2.72536
2.69873
2.6642
1
1
1
1
1
1
1
1.00001
1.00002
1.00005
1.00013
1.0003
1.00078
1.00192
1.00471
1.01192
1.02942
1.07615
1.20178
1.54476
2.26981
2.69796
2.7332
2.70594
2.67029
1
1
1
1
1
1
1
1.00001
1.00002
1.00005
1.00012
1.00029
1.00075
1.00174
1.00464
1.01071
1.02853
1.07042
1.19041
1.51124
2.21541
2.68941
2.74147
2.71151
2.67399
1
1
1
1
1
1
1
1.00001
1.00002
1.00004
1.00012
1.00025
1.00074
1.00157
1.00443
1.01005
1.02679
1.06632
1.17846
1.48112
2.1604
2.68198
2.75031
2.71705
2.67642
1
1
1
1
1
1
1
1.00001
1.00002
1.00004
1.0001
1.00027
1.00064
1.00159
1.00398
1.00973
1.02481
1.0628
1.16718
1.45245
2.10554
2.67628
2.75942
2.7222
2.67802
1
1
1
1
1
1
1
1.00001
1.00001
1.00004
1.00009
1.00027
1.00055
1.0016
1.00351
1.00962
1.02263
1.06002
1.15612
1.42634
2.05223
2.67146
2.76791
2.72636
2.67949
1
1
1
1
1
1
1
1.00001
1.00001
1.00004
1.00009
1.00022
1.00059
1.00135
1.00368
1.00835
1.02257
1.05495
1.14839
1.40063
2.00135
2.66625
2.77615
2.73075
2.68061
1
1
1
1
1
1
1
1.00001
1.00002
1.00003
1.0001
1.0002
1.00058
1.00125
1.00348
1.00798
1.02116
1.05221
1.13965
1.37838
1.9521
2.66294
2.78376
2.73387
2.6803
1
1
1
1
1
1
1
1.00001
1.00001
1.00004
1.00008
1.00022
1.00049
1.00131
1.00311
1.00793
1.01961
1.05024
1.13169
1.35847
1.90961
2.65977
2.78857
2.73477
2.68035
1
1
1
1
1
1
1
1.00001
1.00001
1.00003
1.00008
1.00021
1.00045
1.00133
1.00279
1.00803
1.01802
1.04902
1.12455
1.34194
1.87736
2.65055
2.79006
2.73516
2.68227
1
1
1
1
1
1
1
1.00001
1.00001
1.00003
1.00008
1.00019
1.00048
1.00116
1.00302
1.0071
1.01866
1.04564
1.12157
1.32679
1.85502
2.63207
2.79081
2.73717
2.68512
1
1
1
1
1
1
1
1.00001
1.00001
1.00003
1.00008
1.00018
1.00051
1.00108
1.00311
1.00671
1.0186
1.04414
1.11879
1.31681
1.83795
2.61091
2.79235
2.74016
2.68776
1
1
1
1
1
1
1
1
1.00001
1.00003
1.00008
1.00019
1.00047
1.00118
1.0028
1.0073
1.01733
1.04523
1.11577
1.3135
1.828
2.59685
2.79436
2.74266
2.68952
2.35798
2.49322
2.78783
3.07751
3.05591
3.02126
3.00864
3.00289
2.99543
2.98514
2.97606
2.97276
2.97192
2.97148
2.97129
2.97285
2.97636
2.98143
2.98752
2.99453
3.00084
3.00794
3.01325
3.01862
3.02303
3.02671
3.02866
3.02977
3.03008
3.0285
3.02556
3.02359
3.0226
3.02073
3.01827
3.0139
3.00936
3.00194
2.99778
2.99002
2.98448
2.97555
2.96827
2.9589
2.95047
2.94022
2.93229
2.92198
2.91218
2.90211
2.89189
2.88123
2.87135
2.85999
2.85003
2.83844
2.82795
2.8162
2.80543
2.79417
2.78279
2.77192
2.76027
2.74943
2.73796
2.72693
2.71571
2.70457
2.69347
2.68248
2.67152
2.66081
2.6501
2.63969
2.62928
2.61916
2.60904
2.59926
2.58943
2.58012
2.57062
2.56183
2.55283
2.54452
2.53627
2.52857
2.5211
2.51438
2.50784
2.50233
2.49737
2.49328
2.4906
2.48887
2.48854
2.48862
2.48899
2.48997
2.49302
2.49122
2.374
2.46357
2.62775
2.81726
2.99147
3.03397
3.11991
3.20323
3.203
3.19351
3.18708
3.18587
3.18413
3.18154
3.17765
3.17153
3.16445
3.15394
3.14117
3.12891
3.11887
3.11416
3.10874
3.10138
3.09303
3.08379
3.07358
3.06162
3.05042
3.03818
3.02642
3.01524
3.00213
2.99045
2.97674
2.96476
2.95011
2.93798
2.92486
2.91212
2.89872
2.88676
2.87266
2.86009
2.84624
2.83368
2.82085
2.80767
2.79535
2.78233
2.77007
2.75712
2.74489
2.73231
2.72002
2.708
2.69561
2.68397
2.67169
2.66009
2.64816
2.63648
2.62492
2.61329
2.60196
2.59057
2.57943
2.56838
2.55749
2.54683
2.53622
2.52594
2.51562
2.50571
2.4957
2.48617
2.47651
2.4674
2.4582
2.44946
2.44089
2.43247
2.42457
2.41669
2.4093
2.4023
2.39543
2.38944
2.38357
2.37859
2.37435
2.37074
2.3686
2.36737
2.36745
2.36774
2.36832
2.36958
2.37308
2.37146
2.36499
2.39064
2.46941
2.52985
2.62883
2.76944
2.85804
2.99534
3.08958
3.14044
3.16836
3.18465
3.19239
3.19817
3.21028
3.20889
3.20298
3.18826
3.16549
3.14127
3.1184
3.09644
3.07386
3.05086
3.0271
3.00228
2.97694
2.95302
2.92867
2.90531
2.88313
2.86143
2.84087
2.8214
2.80226
2.78505
2.7671
2.75156
2.73483
2.72008
2.70534
2.69175
2.67781
2.66386
2.64975
2.63686
2.62354
2.61143
2.59844
2.58703
2.57421
2.56353
2.55098
2.5409
2.52876
2.51907
2.50744
2.49794
2.48675
2.4774
2.46657
2.45742
2.44688
2.43796
2.42766
2.41887
2.40884
2.40009
2.39037
2.38165
2.37231
2.36368
2.35475
2.34628
2.33774
2.32946
2.32137
2.31325
2.30565
2.29782
2.29057
2.28329
2.27629
2.2697
2.26306
2.25703
2.25111
2.24573
2.24082
2.23639
2.23285
2.22979
2.22797
2.22733
2.22739
2.22768
2.22832
2.2297
2.23337
2.23195
2.3461
2.33757
2.36483
2.4036
2.45011
2.51477
2.58476
2.648
2.7178
2.78575
2.83322
2.87789
2.90368
2.92285
2.93376
2.93342
2.93031
2.92135
2.90805
2.8896
2.86853
2.84454
2.82178
2.7979
2.77389
2.7501
2.72643
2.70404
2.68244
2.66301
2.64482
2.62899
2.61395
2.6004
2.58826
2.57625
2.56551
2.55434
2.54433
2.53402
2.52478
2.51562
2.50679
2.49734
2.48782
2.47883
2.46967
2.46121
2.45207
2.44388
2.43476
2.42669
2.41765
2.40955
2.40063
2.39241
2.38357
2.37517
2.36635
2.3578
2.34899
2.34039
2.33161
2.3231
2.31437
2.30603
2.29741
2.28926
2.2808
2.27285
2.26462
2.25685
2.24891
2.2413
2.23373
2.22625
2.21906
2.21181
2.20487
2.19804
2.19123
2.1849
2.17845
2.17244
2.16679
2.16115
2.15633
2.15151
2.14738
2.14391
2.14074
2.13892
2.13763
2.1378
2.13834
2.1394
2.14039
2.14247
2.1477
2.14741
2.33725
2.30994
2.3102
2.32927
2.35562
2.39197
2.42979
2.46989
2.49848
2.52859
2.54692
2.56629
2.5776
2.58637
2.58929
2.58774
2.58491
2.58053
2.57641
2.56918
2.56079
2.5522
2.5426
2.53329
2.52433
2.51621
2.50858
2.5016
2.49525
2.48906
2.48386
2.47803
2.47348
2.46851
2.46414
2.45899
2.45441
2.44895
2.44393
2.43807
2.43283
2.42731
2.4218
2.41552
2.40877
2.4024
2.39579
2.3897
2.38297
2.37676
2.3698
2.3633
2.35609
2.34926
2.34179
2.33467
2.32695
2.31954
2.31153
2.30385
2.2956
2.28772
2.27929
2.27133
2.26284
2.25487
2.24649
2.23851
2.23038
2.22242
2.21459
2.20674
2.19913
2.19154
2.18401
2.17669
2.16921
2.16209
2.15496
2.14793
2.14137
2.13455
2.12847
2.12213
2.11643
2.11084
2.10561
2.10098
2.09648
2.09305
2.08969
2.0878
2.08643
2.08651
2.08684
2.08744
2.08886
2.09109
2.0963
2.09659
2.33743
2.30219
2.28905
2.29108
2.30519
2.32476
2.34697
2.36715
2.38247
2.39224
2.39879
2.40199
2.4045
2.40638
2.40633
2.40507
2.40368
2.40316
2.40431
2.40502
2.40502
2.40485
2.40472
2.40464
2.40468
2.40484
2.40492
2.40484
2.40456
2.40405
2.40284
2.40185
2.39983
2.39797
2.39532
2.39259
2.38917
2.38562
2.38122
2.37702
2.37214
2.36815
2.36288
2.35807
2.35126
2.34569
2.33866
2.33293
2.32583
2.31975
2.31265
2.30625
2.29925
2.29256
2.28557
2.27865
2.27158
2.2646
2.25738
2.25037
2.24301
2.23594
2.2286
2.22143
2.21423
2.20697
2.19982
2.19256
2.18531
2.17813
2.17073
2.16369
2.15612
2.14904
2.14161
2.13456
2.12757
2.12063
2.11409
2.10742
2.10132
2.09505
2.08938
2.08367
2.07842
2.0735
2.06879
2.0648
2.06104
2.05804
2.05586
2.05413
2.05418
2.05447
2.05524
2.05605
2.05847
2.06101
2.06632
2.06671
2.34293
2.30634
2.28565
2.27978
2.28257
2.29175
2.30175
2.31011
2.31417
2.31463
2.3119
2.30853
2.30445
2.30188
2.30016
2.29931
2.29746
2.2969
2.29786
2.30073
2.30336
2.30582
2.30785
2.30973
2.3114
2.31279
2.3141
2.31485
2.3155
2.31563
2.31543
2.31486
2.31368
2.31247
2.31038
2.30856
2.30571
2.3033
2.29972
2.29668
2.2929
2.28997
2.2861
2.28236
2.27728
2.27259
2.26715
2.26212
2.25646
2.25102
2.24513
2.23929
2.23316
2.2269
2.22053
2.21387
2.20735
2.20045
2.1938
2.18685
2.18001
2.17317
2.16616
2.1595
2.15245
2.14589
2.13895
2.13234
2.12553
2.11877
2.112
2.10511
2.0985
2.09174
2.08517
2.07873
2.07218
2.06614
2.05975
2.05406
2.04804
2.04264
2.03718
2.03212
2.02734
2.02273
2.01882
2.01493
2.01205
2.00928
2.00766
2.00669
2.0068
2.00722
2.00771
2.00884
2.01163
2.01437
2.01936
2.01977
2.35102
2.31911
2.29564
2.28387
2.28032
2.28036
2.2812
2.28033
2.27666
2.26942
2.26165
2.25249
2.2453
2.23872
2.23532
2.23306
2.23205
2.23017
2.23032
2.2319
2.23539
2.23893
2.24183
2.24479
2.24725
2.25
2.25229
2.25468
2.25671
2.25842
2.25984
2.26083
2.26147
2.26179
2.26154
2.26101
2.25998
2.25869
2.25661
2.25442
2.25181
2.24939
2.24637
2.24289
2.23857
2.23399
2.22912
2.22406
2.21892
2.2135
2.20815
2.20241
2.19678
2.19079
2.18481
2.17868
2.17235
2.1661
2.15945
2.15301
2.14615
2.13941
2.13248
2.12536
2.11835
2.11093
2.10378
2.09624
2.08895
2.08164
2.07437
2.06743
2.06029
2.05373
2.04685
2.04056
2.03404
2.02792
2.02185
2.01589
2.01035
2.00467
1.99967
1.9945
1.99002
1.98569
1.98185
1.97865
1.97574
1.97393
1.97243
1.97249
1.97276
1.97332
1.97429
1.97688
1.97986
1.98425
1.9889
1.99073
2.36276
2.33481
2.31382
2.29846
2.28866
2.28191
2.2747
2.2669
2.25651
2.24531
2.23268
2.22134
2.21039
2.20225
2.19544
2.19186
2.18916
2.18796
2.1862
2.18634
2.18763
2.19082
2.19398
2.19706
2.20013
2.20297
2.20589
2.20851
2.21113
2.21331
2.21533
2.2169
2.21807
2.21882
2.2191
2.21899
2.21843
2.21751
2.21593
2.21419
2.21214
2.21023
2.2079
2.20504
2.20171
2.19783
2.19382
2.18936
2.18483
2.18002
2.17504
2.16993
2.16461
2.15919
2.15363
2.14785
2.1421
2.13602
2.1301
2.1239
2.11775
2.11153
2.1051
2.09891
2.09229
2.08609
2.07945
2.07322
2.06671
2.06039
2.05401
2.04758
2.04134
2.03492
2.02883
2.02258
2.01666
2.01071
2.00496
1.99946
1.99395
1.98901
1.98392
1.97955
1.97521
1.97152
1.96824
1.96544
1.9635
1.962
1.96175
1.96196
1.96255
1.96326
1.96489
1.96815
1.97167
1.97556
1.97998
1.98107
2.37831
2.35485
2.33507
2.31852
2.30413
2.29086
2.27767
2.26378
2.24935
2.23412
2.2197
2.20538
2.19355
2.18246
2.17467
2.168
2.16461
2.16106
2.15992
2.15765
2.15761
2.15808
2.16043
2.16318
2.16625
2.16909
2.17215
2.17477
2.17764
2.18004
2.18235
2.18436
2.18589
2.18719
2.18795
2.18846
2.18839
2.18792
2.18695
2.18567
2.18405
2.18259
2.18049
2.17803
2.17494
2.17133
2.16759
2.16321
2.15893
2.15414
2.14934
2.14438
2.13904
2.13392
2.12812
2.12272
2.11667
2.11088
2.10475
2.09854
2.09238
2.08587
2.07966
2.07295
2.06664
2.05991
2.05352
2.04685
2.04033
2.0338
2.02714
2.02077
2.0141
2.0079
2.00141
1.99538
1.98924
1.98341
1.97773
1.97217
1.96705
1.96193
1.95745
1.95302
1.94935
1.94597
1.94325
1.94128
1.9398
1.93947
1.93966
1.94028
1.94089
1.94234
1.94531
1.94865
1.95264
1.95591
1.96014
1.9608
2.39407
2.37498
2.35548
2.33743
2.3195
2.30211
2.28469
2.26745
2.25025
2.23339
2.21729
2.20248
2.18881
2.17717
2.16698
2.15901
2.15256
2.14794
2.14423
2.14179
2.14006
2.13877
2.13889
2.13994
2.14217
2.14488
2.14728
2.14992
2.15253
2.15475
2.15721
2.15893
2.16083
2.16204
2.16312
2.16362
2.1638
2.16351
2.16275
2.16144
2.16037
2.15884
2.15722
2.15491
2.15215
2.14902
2.14539
2.14155
2.13734
2.13291
2.12841
2.12348
2.11874
2.11343
2.10841
2.10285
2.09749
2.0918
2.08607
2.08029
2.07425
2.06838
2.06209
2.0561
2.04974
2.04362
2.03728
2.03103
2.02479
2.01842
2.01229
2.00587
1.99982
1.99348
1.98753
1.98145
1.97567
1.97002
1.96451
1.95941
1.95431
1.94982
1.94535
1.94166
1.93816
1.93545
1.93331
1.93185
1.9313
1.93145
1.93198
1.93253
1.93388
1.93627
1.94004
1.94287
1.94692
1.94912
1.95315
1.95318
2.41047
2.39386
2.37465
2.35434
2.33393
2.31306
2.29331
2.2737
2.25494
2.23747
2.22082
2.20578
2.19131
2.17886
2.16712
2.15765
2.14906
2.14269
2.13682
2.13274
2.12876
2.12669
2.12488
2.12411
2.12429
2.12568
2.1274
2.12977
2.132
2.13446
2.13662
2.13841
2.14009
2.14127
2.14221
2.14279
2.14292
2.1427
2.14191
2.14086
2.13964
2.13821
2.13661
2.13428
2.13182
2.1287
2.12541
2.12171
2.11757
2.11341
2.10864
2.10409
2.09899
2.09404
2.08878
2.08342
2.07804
2.0723
2.06674
2.06074
2.05499
2.04885
2.04297
2.03688
2.03085
2.02483
2.01867
2.01275
2.00652
2.00069
1.99448
1.98866
1.98263
1.9768
1.97107
1.96531
1.95997
1.95448
1.94959
1.94457
1.94015
1.93581
1.932
1.92869
1.92581
1.92375
1.92223
1.92167
1.92181
1.92233
1.92294
1.92428
1.9273
1.92993
1.93388
1.93646
1.93999
1.94162
1.94489
1.94458
2.42308
2.40745
2.38823
2.36736
2.34581
2.32445
2.30352
2.28395
2.26472
2.24706
2.22975
2.21421
2.19927
2.18573
2.17308
2.16175
2.15153
2.14272
2.13498
2.12865
2.12329
2.11952
2.11608
2.11433
2.11271
2.11235
2.11256
2.11346
2.11505
2.11681
2.11851
2.11989
2.12122
2.12214
2.12299
2.12344
2.12355
2.12334
2.12266
2.12162
2.12036
2.11917
2.11752
2.11557
2.11319
2.11031
2.10732
2.10362
2.09997
2.09569
2.09144
2.0869
2.08214
2.07743
2.07225
2.06734
2.06181
2.05661
2.05082
2.0453
2.03939
2.03364
2.02779
2.02187
2.01608
2.01004
2.00428
1.9982
1.9924
1.9864
1.98052
1.97467
1.96878
1.96317
1.95741
1.95214
1.94672
1.94188
1.93702
1.93269
1.92854
1.92488
1.92171
1.91899
1.91702
1.91559
1.91507
1.91521
1.91564
1.91632
1.918
1.92013
1.92363
1.92637
1.92976
1.93184
1.93436
1.93543
1.93765
1.93687
2.43404
2.41773
2.3977
2.37606
2.35363
2.33211
2.31093
2.29173
2.27306
2.25597
2.23928
2.22367
2.20853
2.19432
2.18071
2.16815
2.15663
2.14627
2.13715
2.12906
2.1223
2.11619
2.11143
2.10737
2.10453
2.10233
2.10109
2.10002
2.10003
2.10044
2.10138
2.1022
2.10325
2.10406
2.10474
2.10511
2.10525
2.10501
2.10441
2.10324
2.10216
2.10088
2.09925
2.09738
2.0948
2.09219
2.08899
2.08563
2.08194
2.07789
2.07383
2.06927
2.06489
2.05999
2.05529
2.05017
2.04513
2.03984
2.03443
2.02901
2.02338
2.01792
2.01215
2.00664
2.0008
1.99521
1.98942
1.9837
1.97804
1.97223
1.96672
1.96093
1.95559
1.94997
1.94485
1.93961
1.9348
1.93018
1.9258
1.92192
1.91822
1.91532
1.91263
1.91091
1.90953
1.90925
1.90942
1.90984
1.91067
1.91235
1.9152
1.918
1.92141
1.92396
1.9266
1.92815
1.92972
1.93035
1.93179
1.93063
2.43917
2.42104
2.40088
2.37982
2.35873
2.3384
2.31874
2.30023
2.28254
2.26575
2.24947
2.23377
2.21858
2.20376
2.18972
2.17608
2.1635
2.15154
2.1409
2.13087
2.12225
2.11419
2.10755
2.10159
2.09686
2.09284
2.08996
2.08769
2.08643
2.08517
2.08508
2.0852
2.08571
2.08628
2.08659
2.08685
2.08675
2.08641
2.08574
2.08459
2.08363
2.08223
2.08092
2.07896
2.0767
2.07419
2.07114
2.06807
2.0643
2.06064
2.05639
2.05218
2.04765
2.04301
2.0383
2.03335
2.02852
2.0233
2.0183
2.01295
2.00781
2.00239
1.99705
1.99162
1.98608
1.98068
1.975
1.96962
1.96393
1.95858
1.95302
1.94772
1.94243
1.93726
1.93238
1.92749
1.92321
1.91881
1.91521
1.91157
1.90894
1.90634
1.90488
1.90359
1.90354
1.90374
1.9042
1.90511
1.90714
1.90981
1.91302
1.91595
1.91884
1.92085
1.92281
1.92357
1.92461
1.92481
1.92546
1.924
2.44625
2.42624
2.40506
2.38378
2.36315
2.34377
2.32517
2.30774
2.29076
2.27445
2.25854
2.24279
2.22751
2.21231
2.1976
2.18333
2.16954
2.15657
2.14437
2.1331
2.12277
2.11351
2.10509
2.0978
2.09123
2.08588
2.08115
2.07767
2.0747
2.07266
2.07096
2.06968
2.06897
2.06864
2.06849
2.06831
2.06799
2.06759
2.06678
2.06584
2.06479
2.06355
2.06239
2.06044
2.05859
2.05599
2.05347
2.05033
2.04703
2.04342
2.03944
2.03543
2.03095
2.02664
2.02185
2.01727
2.01231
2.00745
2.00245
1.99735
1.99234
1.98705
1.982
1.97661
1.97149
1.9661
1.96089
1.95561
1.95033
1.94526
1.94
1.93519
1.93009
1.92559
1.92083
1.91676
1.91253
1.90906
1.90557
1.90301
1.90065
1.89925
1.89821
1.89827
1.89851
1.89909
1.90014
1.9023
1.90504
1.90839
1.91101
1.91408
1.9158
1.91764
1.9185
1.91904
1.91898
1.91898
1.91888
1.91749
2.44623
2.42578
2.40529
2.38515
2.36595
2.34788
2.33055
2.31393
2.29782
2.28184
2.26619
2.25048
2.23489
2.21953
2.20421
2.1895
2.175
2.16122
2.14814
2.13574
2.12429
2.1136
2.10381
2.09486
2.08682
2.0797
2.07347
2.06819
2.06369
2.06009
2.05709
2.05465
2.0531
2.05174
2.05094
2.05037
2.05001
2.04963
2.04883
2.04811
2.04683
2.04589
2.0444
2.04275
2.04069
2.03832
2.03585
2.03282
2.02984
2.02624
2.02275
2.01871
2.01474
2.01042
2.006
2.00148
1.99669
1.99203
1.98705
1.98224
1.97715
1.97216
1.96708
1.96193
1.95695
1.95169
1.94685
1.94162
1.9369
1.93185
1.92728
1.92253
1.91818
1.91387
1.90989
1.90619
1.90275
1.89972
1.8972
1.8952
1.89388
1.89316
1.89325
1.89361
1.89434
1.89557
1.89808
1.90066
1.90416
1.90679
1.90954
1.91157
1.91279
1.91402
1.91405
1.91396
1.91363
1.91336
1.91282
1.91118
2.44822
2.42628
2.40597
2.38717
2.36907
2.35217
2.33578
2.31992
2.30421
2.28855
2.2729
2.25714
2.24144
2.22573
2.2102
2.19494
2.17997
2.16553
2.15162
2.13834
2.12579
2.1139
2.1028
2.09253
2.08305
2.07451
2.06683
2.06005
2.05409
2.04917
2.04495
2.0414
2.0387
2.03645
2.03508
2.03367
2.03294
2.0319
2.03127
2.0302
2.02912
2.02809
2.02659
2.02512
2.02305
2.02111
2.01862
2.01605
2.01309
2.00984
2.00644
2.00264
1.99886
1.99464
1.99051
1.98599
1.98154
1.97693
1.97223
1.96761
1.96271
1.95805
1.95305
1.94834
1.94335
1.93859
1.93373
1.92896
1.92433
1.91963
1.91531
1.91085
1.90693
1.90294
1.89959
1.89623
1.89355
1.8911
1.88949
1.88825
1.88794
1.88806
1.88854
1.88954
1.89093
1.89375
1.89659
1.89991
1.90285
1.90512
1.90748
1.90825
1.90958
1.90948
1.90928
1.90896
1.9082
1.90752
1.90636
1.90487
2.4533
2.42997
2.40965
2.39157
2.37433
2.35774
2.34166
2.32593
2.31031
2.29451
2.27864
2.26263
2.24667
2.23081
2.21513
2.19966
2.18438
2.16948
2.15494
2.14103
2.12756
2.11484
2.10272
2.09141
2.08081
2.07102
2.06204
2.05394
2.04676
2.04049
2.03499
2.03045
2.0262
2.02312
2.02054
2.01855
2.01714
2.01574
2.01491
2.01367
2.01286
2.01162
2.01054
2.00916
2.00757
2.00588
2.00367
2.00149
1.99865
1.99589
1.99256
1.98919
1.98548
1.98153
1.97753
1.97317
1.96898
1.96442
1.96002
1.95538
1.95074
1.94616
1.94132
1.93685
1.93192
1.92754
1.92266
1.91835
1.91366
1.90951
1.90513
1.90135
1.89744
1.89429
1.89104
1.88861
1.88628
1.88494
1.88381
1.88375
1.88393
1.88446
1.88562
1.8873
1.8903
1.89328
1.89635
1.89939
1.90139
1.90381
1.90447
1.90562
1.90544
1.90524
1.90482
1.90419
1.90285
1.90149
1.90008
1.89869
2.46776
2.44293
2.42222
2.40362
2.38583
2.36861
2.35171
2.3351
2.31882
2.30273
2.28657
2.27041
2.25411
2.23784
2.22155
2.20553
2.18969
2.17428
2.15923
2.14469
2.13062
2.11705
2.10423
2.09185
2.08047
2.06956
2.05968
2.0504
2.04201
2.03433
2.02766
2.02182
2.01686
2.0127
2.0092
2.00668
2.00445
2.00286
2.00146
2.00036
1.99944
1.99839
1.99761
1.99637
1.99537
1.99373
1.99215
1.99
1.98766
1.98501
1.98193
1.97878
1.97509
1.97142
1.96732
1.9632
1.95894
1.95442
1.9501
1.94529
1.94096
1.93606
1.9317
1.92685
1.92248
1.91777
1.91348
1.90898
1.9049
1.90072
1.89703
1.89333
1.89025
1.88721
1.88487
1.8827
1.88148
1.88055
1.88056
1.88079
1.88139
1.88281
1.88491
1.88782
1.89095
1.89377
1.89695
1.89869
1.90107
1.90169
1.90272
1.90254
1.90232
1.90193
1.90106
1.89997
1.89805
1.89641
1.8947
1.89326
2.48836
2.46115
2.43909
2.41943
2.40095
2.38287
2.36526
2.34782
2.33052
2.31335
2.29632
2.27934
2.26265
2.24597
2.22966
2.2133
2.19723
2.1812
2.16558
2.15038
2.13568
2.12164
2.10815
2.0953
2.08309
2.07142
2.0605
2.05021
2.04072
2.03211
2.02434
2.01751
2.01149
2.00616
2.00182
1.9983
1.99549
1.99324
1.99151
1.99032
1.98911
1.98833
1.98725
1.98642
1.98514
1.98379
1.98206
1.97998
1.97773
1.97497
1.97216
1.96892
1.96555
1.962
1.95812
1.95434
1.95008
1.94609
1.9416
1.93743
1.93285
1.92857
1.92399
1.91966
1.91516
1.91087
1.90658
1.90244
1.89849
1.89471
1.89122
1.88811
1.8853
1.88296
1.88105
1.87987
1.87924
1.87929
1.87954
1.88031
1.88207
1.88462
1.88746
1.89086
1.89342
1.89666
1.89827
1.90053
1.90113
1.90201
1.90179
1.90154
1.90104
1.90032
1.89882
1.89726
1.89501
1.89313
1.89123
1.88969
2.51737
2.48946
2.46535
2.44292
2.42221
2.40216
2.38265
2.36351
2.3447
2.32634
2.30844
2.29093
2.27375
2.25679
2.24003
2.22343
2.20707
2.19094
2.17511
2.15975
2.14464
2.13
2.1156
2.10178
2.08841
2.07572
2.06374
2.05257
2.04225
2.0329
2.02441
2.01695
2.01045
2.00474
1.99968
1.99539
1.99178
1.9889
1.98645
1.98434
1.98279
1.98142
1.98029
1.97914
1.97791
1.97661
1.97496
1.97326
1.97113
1.96886
1.9663
1.9634
1.96043
1.95696
1.95358
1.94974
1.94598
1.94186
1.9378
1.9335
1.92926
1.92488
1.92055
1.91618
1.9119
1.90764
1.90354
1.89956
1.89583
1.89234
1.88924
1.8865
1.8842
1.8824
1.88129
1.88075
1.88078
1.88102
1.88202
1.88405
1.88691
1.88959
1.89313
1.89542
1.89861
1.90015
1.90222
1.90281
1.90353
1.90325
1.90294
1.90244
1.9015
1.90023
1.89822
1.89635
1.89388
1.89182
1.88976
1.88816
2.54532
2.51843
2.49405
2.47103
2.44892
2.42759
2.4067
2.3862
2.36621
2.34657
2.32747
2.30886
2.29068
2.27296
2.25546
2.23833
2.22124
2.20442
2.18767
2.17133
2.15544
2.14
2.12529
2.11115
2.09776
2.08507
2.07308
2.06176
2.05128
2.04139
2.03234
2.024
2.0163
2.00949
2.00312
1.99755
1.99274
1.98879
1.98559
1.98309
1.98117
1.97953
1.97826
1.97698
1.97585
1.97457
1.97321
1.97167
1.96987
1.96791
1.96558
1.96309
1.96021
1.95717
1.95385
1.95029
1.94659
1.94264
1.93863
1.93443
1.93023
1.9259
1.92161
1.91729
1.91305
1.90889
1.90488
1.9011
1.89755
1.8944
1.89161
1.88932
1.8874
1.88643
1.88565
1.88566
1.88594
1.88738
1.88932
1.89249
1.89488
1.89844
1.90055
1.90348
1.90495
1.90677
1.90729
1.90781
1.90749
1.90706
1.90642
1.90555
1.90396
1.90223
1.8999
1.89784
1.89515
1.89297
1.89076
1.88911
2.57216
2.5487
2.52581
2.50317
2.48078
2.45873
2.43708
2.41582
2.39486
2.37437
2.3541
2.33436
2.31491
2.29589
2.27724
2.25892
2.24104
2.22356
2.20649
2.19014
2.1742
2.15895
2.144
2.12956
2.11556
2.10194
2.08908
2.07663
2.06514
2.05412
2.0441
2.03461
2.02606
2.01826
2.01126
2.00511
1.99958
1.99509
1.99114
1.98792
1.98523
1.98294
1.98118
1.97955
1.97832
1.97704
1.97593
1.97467
1.97328
1.97172
1.96974
1.96762
1.96496
1.96218
1.95894
1.95552
1.95183
1.94788
1.94391
1.9396
1.9355
1.93102
1.92695
1.92245
1.91857
1.91426
1.91076
1.90689
1.90398
1.90093
1.89883
1.89677
1.89576
1.89478
1.89468
1.89518
1.89692
1.89858
1.90185
1.90401
1.90738
1.90941
1.9121
1.91346
1.91507
1.91555
1.91579
1.9154
1.915
1.91421
1.91322
1.91175
1.90973
1.90777
1.90521
1.90296
1.90012
1.89779
1.89549
1.89379
2.59707
2.57545
2.55448
2.53281
2.51115
2.48937
2.46801
2.44677
2.42574
2.40487
2.38423
2.36392
2.3441
2.3247
2.3059
2.28743
2.26941
2.25167
2.23419
2.21695
2.20008
2.18359
2.16756
2.15207
2.13717
2.12299
2.10945
2.09654
2.08443
2.0727
2.06194
2.05155
2.04223
2.0334
2.02557
2.01837
2.01178
2.00611
2.00103
1.99694
1.99347
1.9908
1.98881
1.9872
1.98619
1.98506
1.98436
1.98319
1.98219
1.98068
1.97898
1.97706
1.97455
1.9722
1.969
1.96615
1.9624
1.95903
1.95484
1.95102
1.94651
1.94244
1.93778
1.93374
1.92919
1.92549
1.92139
1.91826
1.91511
1.91272
1.91067
1.90935
1.90816
1.90805
1.90871
1.91057
1.91206
1.91511
1.91711
1.92021
1.92213
1.92457
1.92594
1.9272
1.92785
1.92777
1.92739
1.92668
1.92607
1.92484
1.9234
1.92151
1.91929
1.91712
1.91445
1.91208
1.9092
1.9068
1.9045
1.90278
2.61614
2.59665
2.57763
2.55835
2.53807
2.51782
2.4972
2.47683
2.45625
2.43601
2.41585
2.39613
2.37662
2.35732
2.33827
2.31928
2.30059
2.28204
2.26388
2.24601
2.22865
2.21176
2.19541
2.17945
2.16404
2.14906
2.13456
2.12071
2.10743
2.09491
2.0832
2.07214
2.06201
2.05232
2.04361
2.03534
2.02794
2.02118
2.0153
2.01042
2.00614
2.00282
1.99987
1.99762
1.99559
1.99394
1.99246
1.9911
1.9899
1.98856
1.98738
1.98582
1.98436
1.9824
1.98035
1.97785
1.97507
1.97195
1.96846
1.96481
1.96076
1.95674
1.9525
1.94836
1.94432
1.94047
1.93701
1.93387
1.93144
1.92921
1.92755
1.92647
1.92651
1.92729
1.92906
1.93049
1.9333
1.93522
1.93808
1.93988
1.94209
1.94345
1.94448
1.9451
1.94495
1.94436
1.94387
1.94292
1.94205
1.94032
1.93861
1.93645
1.93411
1.93173
1.92891
1.92635
1.9233
1.92065
1.91822
1.9162
2.63013
2.61231
2.59568
2.5784
2.56049
2.54184
2.52327
2.50439
2.48562
2.46652
2.44713
2.42775
2.40819
2.38877
2.36956
2.35057