/*--------------------------------*- C++ -*----------------------------------*\
  =========                 |
  \\      /  F ield         | OpenFOAM: The Open Source CFD Toolbox
   \\    /   O peration     | Website:  https://openfoam.org
    \\  /    A nd           | Version:  13
     \\/     M anipulation  |
\*---------------------------------------------------------------------------*/
FoamFile
{
    format      ascii;
    class       volVectorField;
    location    "10";
    object      U;
}
// * * * * * * * * * * * * * * * * * * * * * * * * * * * * * * * * * * * * * //

dimensions      [0 1 -1 0 0 0 0];

internalField   nonuniform List<vector> 
5250
(
(2.99999 -1.80557e-08 0)
(2.99998 1.8842e-07 0)
(2.99995 -1.23447e-07 0)
(2.99988 1.81719e-06 0)
(2.99969 -7.82038e-07 0)
(2.99925 1.08391e-05 0)
(2.99812 -3.21016e-06 0)
(2.99541 5.91778e-05 0)
(2.98855 9.64479e-06 0)
(2.97133 0.000261686 0)
(2.92578 0.000320208 0)
(2.79812 0.0012451 0)
(2.42235 0.00314389 0)
(1.41185 0.0094388 0)
(0.609599 0.0214748 0)
(0.557227 0.022623 0)
(0.574784 0.0236529 0)
(0.559683 0.0251622 0)
(0.503732 0.026966 0)
(0.417254 0.0291047 0)
(0.337098 0.0316728 0)
(0.268729 0.0346102 0)
(0.198747 0.0377122 0)
(0.119325 0.0413647 0)
(0.0524768 0.0465983 0)
(2.99999 2.55735e-08 0)
(2.99998 2.45704e-07 0)
(2.99995 5.75055e-07 0)
(2.99988 2.41052e-06 0)
(2.9997 4.30354e-06 0)
(2.99925 1.53844e-05 0)
(2.99816 2.88609e-05 0)
(2.99542 9.11875e-05 0)
(2.98872 0.000193135 0)
(2.97158 0.000541946 0)
(2.92661 0.00130171 0)
(2.80045 0.0035599 0)
(2.42914 0.00990882 0)
(1.4264 0.0291005 0)
(0.618854 0.064908 0)
(0.556546 0.0652964 0)
(0.574331 0.0655651 0)
(0.559672 0.0679277 0)
(0.503921 0.0709435 0)
(0.417628 0.0748936 0)
(0.337351 0.0794382 0)
(0.268301 0.0842216 0)
(0.197265 0.0886699 0)
(0.116491 0.0930363 0)
(0.0491326 0.0974093 0)
(2.99999 6.53697e-08 0)
(2.99998 3.35117e-07 0)
(2.99995 1.31877e-06 0)
(2.99988 3.30669e-06 0)
(2.9997 9.7236e-06 0)
(2.99927 2.25679e-05 0)
(2.99819 6.06857e-05 0)
(2.99555 0.00013878 0)
(2.98892 0.000370081 0)
(2.97225 0.000866592 0)
(2.9283 0.0022885 0)
(2.80527 0.00596831 0)
(2.44376 0.0168044 0)
(1.45864 0.0493554 0)
(0.640415 0.111624 0)
(0.556284 0.110438 0)
(0.575233 0.109851 0)
(0.562192 0.114336 0)
(0.507345 0.119997 0)
(0.422013 0.127622 0)
(0.341983 0.136016 0)
(0.272398 0.144685 0)
(0.200355 0.152968 0)
(0.11811 0.16059 0)
(0.0487924 0.166381 0)
(2.99999 6.76521e-08 0)
(2.99998 5.65134e-07 0)
(2.99995 1.61803e-06 0)
(2.99988 5.51791e-06 0)
(2.99972 1.20358e-05 0)
(2.99929 3.66391e-05 0)
(2.99826 7.51451e-05 0)
(2.99568 0.000221828 0)
(2.98932 0.00047155 0)
(2.97318 0.00129538 0)
(2.93086 0.0031077 0)
(2.81254 0.00842236 0)
(2.46558 0.0233662 0)
(1.50845 0.0687077 0)
(0.673311 0.158925 0)
(0.555269 0.155007 0)
(0.577193 0.153095 0)
(0.567419 0.15997 0)
(0.514184 0.168538 0)
(0.430528 0.180127 0)
(0.351015 0.192737 0)
(0.281104 0.205863 0)
(0.207996 0.21874 0)
(0.123549 0.2304 0)
(0.0506814 0.2381 0)
(3 1.13858e-07 0)
(2.99998 6.00347e-07 0)
(2.99996 2.3546e-06 0)
(2.99989 5.8696e-06 0)
(2.99973 1.74198e-05 0)
(2.99932 3.91489e-05 0)
(2.99834 0.000109735 0)
(2.99588 0.000244413 0)
(2.98982 0.000665219 0)
(2.97444 0.00155052 0)
(2.93424 0.00409655 0)
(2.82216 0.0106468 0)
(2.49433 0.0299155 0)
(1.57628 0.0873129 0)
(0.717561 0.207805 0)
(0.552811 0.199272 0)
(0.57996 0.195386 0)
(0.575195 0.204701 0)
(0.524138 0.216175 0)
(0.44282 0.231723 0)
(0.364175 0.248774 0)
(0.294161 0.266858 0)
(0.2199 0.285093 0)
(0.132345 0.301822 0)
(0.0543948 0.312389 0)
(3 1.35119e-07 0)
(2.99998 7.47245e-07 0)
(2.99996 2.83341e-06 0)
(2.9999 7.30005e-06 0)
(2.99974 2.09928e-05 0)
(2.99937 4.8595e-05 0)
(2.99843 0.000132571 0)
(2.99614 0.000302117 0)
(2.99041 0.000807335 0)
(2.97604 0.0018985 0)
(2.93843 0.00498633 0)
(2.83409 0.0129324 0)
(2.52981 0.0362587 0)
(1.66339 0.105336 0)
(0.773856 0.258989 0)
(0.548716 0.243518 0)
(0.584111 0.236878 0)
(0.586192 0.248732 0)
(0.53771 0.263201 0)
(0.459388 0.282947 0)
(0.382102 0.305025 0)
(0.312372 0.329058 0)
(0.237086 0.354133 0)
(0.145641 0.378107 0)
(0.0605839 0.393934 0)
(3 1.49406e-07 0)
(2.99999 8.88147e-07 0)
(2.99996 3.25242e-06 0)
(2.9999 8.64267e-06 0)
(2.99976 2.41982e-05 0)
(2.99942 5.76483e-05 0)
(2.99855 0.000152024 0)
(2.99644 0.000361678 0)
(2.99115 0.000925416 0)
(2.97793 0.00225854 0)
(2.94343 0.0057971 0)
(2.84827 0.0151368 0)
(2.57177 0.0422041 0)
(1.77118 0.122363 0)
(0.843599 0.311867 0)
(0.544367 0.288522 0)
(0.591126 0.27827 0)
(0.6017 0.292278 0)
(0.555978 0.309536 0)
(0.481335 0.333631 0)
(0.406092 0.361435 0)
(0.33732 0.392751 0)
(0.261561 0.426832 0)
(0.165872 0.461633 0)
(0.070968 0.487668 0)
(3 1.61276e-07 0)
(2.99999 1.01762e-06 0)
(2.99997 3.52556e-06 0)
(2.99991 9.91255e-06 0)
(2.99978 2.63238e-05 0)
(2.99947 6.56504e-05 0)
(2.99868 0.000167493 0)
(2.99679 0.000409286 0)
(2.99199 0.00103132 0)
(2.98011 0.00255058 0)
(2.94915 0.00648956 0)
(2.86453 0.0169646 0)
(2.61968 0.0471122 0)
(1.9007 0.13646 0)
(0.929869 0.361841 0)
(0.544774 0.333367 0)
(0.603861 0.319806 0)
(0.623652 0.335051 0)
(0.580557 0.354716 0)
(0.510237 0.38336 0)
(0.437885 0.417686 0)
(0.371183 0.457812 0)
(0.296479 0.503618 0)
(0.197634 0.55471 0)
(0.0892633 0.601622 0)
(3 1.5169e-07 0)
(2.99999 1.144e-06 0)
(2.99997 3.49251e-06 0)
(2.99992 1.11854e-05 0)
(2.99981 2.61739e-05 0)
(2.99953 7.44388e-05 0)
(2.99884 0.000166513 0)
(2.99716 0.000462425 0)
(2.99293 0.00104481 0)
(2.98248 0.00281184 0)
(2.95544 0.00677331 0)
(2.88222 0.0181652 0)
(2.67208 0.0497225 0)
(2.04897 0.144733 0)
(1.03584 0.401716 0)
(0.559857 0.379852 0)
(0.627289 0.365985 0)
(0.654855 0.378634 0)
(0.614088 0.39968 0)
(0.548548 0.432074 0)
(0.479909 0.473667 0)
(0.416743 0.523111 0)
(0.346438 0.583109 0)
(0.2501 0.659896 0)
(0.123784 0.750104 0)
(3 1.66009e-07 0)
(2.99999 1.00906e-06 0)
(2.99997 3.61659e-06 0)
(2.99993 9.92651e-06 0)
(2.99984 2.69695e-05 0)
(2.99959 6.70662e-05 0)
(2.99901 0.00017004 0)
(2.99752 0.00042066 0)
(2.99395 0.00104768 0)
(2.98488 0.00260497 0)
(2.96196 0.00658421 0)
(2.90044 0.0170702 0)
(2.72611 0.0468207 0)
(2.21177 0.135323 0)
(1.17409 0.393354 0)
(0.612559 0.417281 0)
(0.670077 0.417227 0)
(0.698772 0.422671 0)
(0.660201 0.445728 0)
(0.599369 0.479839 0)
(0.534748 0.527995 0)
(0.476736 0.586122 0)
(0.418884 0.664885 0)
(0.340535 0.784218 0)
(0.190902 0.991504 0)
(3 1.59025e-07 0)
(2.99999 8.49309e-07 0)
(2.99998 3.32908e-06 0)
(2.99994 8.32201e-06 0)
(2.99986 2.46569e-05 0)
(2.99965 5.5679e-05 0)
(2.99913 0.000155171 0)
(2.99789 0.000344908 0)
(2.99475 0.000938817 0)
(2.9871 0.00215064 0)
(2.9675 0.00566874 0)
(2.91584 0.0141029 0)
(2.77107 0.0383478 0)
(2.34683 0.10844 0)
(1.32512 0.323808 0)
(0.676546 0.445741 0)
(0.707637 0.471902 0)
(0.737464 0.470644 0)
(0.710093 0.492802 0)
(0.657376 0.526616 0)
(0.600742 0.577254 0)
(0.554416 0.643006 0)
(0.526089 0.737393 0)
(0.526552 0.883619 0)
(0.56298 1.12595 0)
(3 1.25602e-07 0)
(2.99999 8.16497e-07 0)
(2.99998 2.74752e-06 0)
(2.99995 7.93127e-06 0)
(2.99988 2.0357e-05 0)
(2.9997 5.21308e-05 0)
(2.99925 0.000127666 0)
(2.99817 0.000318721 0)
(2.99545 0.000775886 0)
(2.98883 0.00192294 0)
(2.9719 0.00475008 0)
(2.92765 0.0120414 0)
(2.80413 0.0317892 0)
(2.4433 0.088511 0)
(1.4863 0.262013 0)
(0.755331 0.490824 0)
(0.724619 0.521539 0)
(0.753713 0.51939 0)
(0.748132 0.537137 0)
(0.711175 0.570346 0)
(0.670152 0.620076 0)
(0.642 0.689489 0)
(0.644138 0.788216 0)
(0.698637 0.926283 0)
(0.825698 1.10351 0)
(3 1.15777e-07 0)
(2.99999 7.5994e-07 0)
(2.99998 2.51529e-06 0)
(2.99996 7.39018e-06 0)
(2.99989 1.87065e-05 0)
(2.99974 4.84636e-05 0)
(2.99935 0.000118437 0)
(2.99843 0.000296673 0)
(2.99609 0.00072648 0)
(2.99041 0.0017947 0)
(2.97592 0.00445024 0)
(2.93833 0.0112384 0)
(2.83426 0.029528 0)
(2.53155 0.0819806 0)
(1.6826 0.239156 0)
(0.870377 0.539572 0)
(0.73271 0.555135 0)
(0.763257 0.556998 0)
(0.776619 0.571644 0)
(0.758369 0.606102 0)
(0.735919 0.655307 0)
(0.728817 0.722872 0)
(0.75271 0.813062 0)
(0.825559 0.923564 0)
(0.965616 1.03128 0)
(3 1.05358e-07 0)
(2.99999 7.24067e-07 0)
(2.99999 2.37219e-06 0)
(2.99996 7.06145e-06 0)
(2.99991 1.76064e-05 0)
(2.99978 4.70521e-05 0)
(2.99946 0.000109734 0)
(2.99868 0.000293264 0)
(2.9967 0.000671091 0)
(2.99193 0.00178678 0)
(2.97977 0.00420132 0)
(2.94853 0.0109833 0)
(2.86296 0.0282317 0)
(2.61583 0.0786349 0)
(1.89844 0.227371 0)
(1.01498 0.57491 0)
(0.746996 0.580847 0)
(0.775843 0.583662 0)
(0.802927 0.595834 0)
(0.802796 0.631665 0)
(0.796391 0.680795 0)
(0.805329 0.742726 0)
(0.842303 0.81701 0)
(0.918517 0.899599 0)
(1.04908 0.968367 0)
(3 9.87834e-08 0)
(3 6.84956e-07 0)
(2.99999 2.21059e-06 0)
(2.99997 6.71422e-06 0)
(2.99993 1.64864e-05 0)
(2.99982 4.46873e-05 0)
(2.99956 0.000104125 0)
(2.9989 0.000277264 0)
(2.99733 0.000644024 0)
(2.99335 0.00169737 0)
(2.98358 0.00405089 0)
(2.95837 0.010523 0)
(2.89058 0.0270644 0)
(2.69736 0.0749039 0)
(2.12595 0.21695 0)
(1.19013 0.595759 0)
(0.786787 0.612503 0)
(0.803525 0.615289 0)
(0.83599 0.619388 0)
(0.849103 0.650915 0)
(0.85277 0.69699 0)
(0.87059 0.751183 0)
(0.913726 0.810639 0)
(0.988251 0.871269 0)
(1.10488 0.917911 0)
(3 9.12448e-08 0)
(3 5.7068e-07 0)
(2.99999 1.97335e-06 0)
(2.99998 5.57436e-06 0)
(2.99994 1.47157e-05 0)
(2.99986 3.69117e-05 0)
(2.99965 9.33088e-05 0)
(2.99913 0.000227861 0)
(2.99788 0.000571595 0)
(2.99477 0.00139859 0)
(2.98713 0.00349226 0)
(2.96771 0.00872858 0)
(2.91674 0.0224612 0)
(2.77495 0.0607461 0)
(2.36275 0.173996 0)
(1.42228 0.511548 0)
(0.884185 0.624661 0)
(0.859093 0.645126 0)
(0.88049 0.650063 0)
(0.900839 0.670804 0)
(0.908605 0.708411 0)
(0.928526 0.753263 0)
(0.97204 0.800009 0)
(1.04201 0.84408 0)
(1.14429 0.87586 0)
(3 7.82761e-08 0)
(3 4.49084e-07 0)
(2.99999 1.66993e-06 0)
(2.99998 4.36441e-06 0)
(2.99995 1.23083e-05 0)
(2.99988 2.89963e-05 0)
(2.99972 7.6754e-05 0)
(2.9993 0.000178543 0)
(2.99831 0.00046085 0)
(2.99579 0.00108373 0)
(2.98969 0.00275104 0)
(2.97417 0.00663394 0)
(2.93389 0.0169806 0)
(2.82272 0.0442213 0)
(2.50118 0.122908 0)
(1.64472 0.366785 0)
(0.97557 0.647651 0)
(0.897549 0.67768 0)
(0.914926 0.688074 0)
(0.941913 0.695208 0)
(0.957532 0.720013 0)
(0.978989 0.753707 0)
(1.0202 0.788482 0)
(1.08415 0.818642 0)
(1.17305 0.838903 0)
(3 6.2245e-08 0)
(3 3.98209e-07 0)
(2.99999 1.34321e-06 0)
(2.99999 3.87687e-06 0)
(2.99996 9.9663e-06 0)
(2.99991 2.54252e-05 0)
(2.99977 6.31732e-05 0)
(2.99945 0.000154257 0)
(2.99864 0.000387041 0)
(2.99668 0.000925579 0)
(2.99175 0.00234285 0)
(2.97956 0.00566273 0)
(2.94791 0.0144386 0)
(2.86178 0.0373141 0)
(2.61423 0.102937 0)
(1.90689 0.300532 0)
(1.12317 0.685048 0)
(0.923535 0.710297 0)
(0.935573 0.719174 0)
(0.967153 0.71648 0)
(0.994458 0.728829 0)
(1.0199 0.752137 0)
(1.05853 0.776242 0)
(1.11652 0.79584 0)
(1.19391 0.805717 0)
(3 5.04249e-08 0)
(3 3.46054e-07 0)
(3 1.11489e-06 0)
(2.99999 3.38486e-06 0)
(2.99997 8.31356e-06 0)
(2.99993 2.22937e-05 0)
(2.99983 5.25534e-05 0)
(2.99957 0.000136692 0)
(2.99895 0.000323361 0)
(2.99742 0.00082809 0)
(2.99364 0.00198925 0)
(2.98424 0.00504675 0)
(2.96026 0.0125033 0)
(2.89601 0.032677 0)
(2.71434 0.0889978 0)
(2.17933 0.257877 0)
(1.32329 0.681998 0)
(0.973792 0.735101 0)
(0.96382 0.737832 0)
(0.989791 0.732316 0)
(1.02463 0.734242 0)
(1.054 0.74749 0)
(1.0904 0.762797 0)
(1.14175 0.774469 0)
(1.20749 0.77463 0)
(3 4.32493e-08 0)
(3 2.67091e-07 0)
(3 9.37991e-07 0)
(2.99999 2.61076e-06 0)
(2.99998 6.94348e-06 0)
(2.99995 1.73434e-05 0)
(2.99987 4.34578e-05 0)
(2.99968 0.000106975 0)
(2.99921 0.00026379 0)
(2.99806 0.000652759 0)
(2.99527 0.00159723 0)
(2.98832 0.00398616 0)
(2.97094 0.00985564 0)
(2.92545 0.025354 0)
(2.80061 0.0676662 0)
(2.43891 0.193096 0)
(1.59202 0.561481 0)
(1.07492 0.735248 0)
(1.01122 0.747172 0)
(1.02301 0.747001 0)
(1.05464 0.741553 0)
(1.085 0.744531 0)
(1.11856 0.750718 0)
(1.1616 0.752155 0)
(1.21522 0.742706 0)
(3 3.39861e-08 0)
(3 2.05753e-07 0)
(3 7.34738e-07 0)
(2.99999 1.99926e-06 0)
(2.99998 5.42032e-06 0)
(2.99996 1.32174e-05 0)
(2.9999 3.3647e-05 0)
(2.99975 8.12204e-05 0)
(2.99941 0.000201292 0)
(2.99853 0.000490832 0)
(2.99642 0.00120013 0)
(2.99112 0.0029576 0)
(2.97804 0.00724472 0)
(2.94406 0.0182463 0)
(2.8518 0.0472928 0)
(2.58774 0.130125 0)
(1.86221 0.386571 0)
(1.18792 0.736123 0)
(1.0416 0.76206 0)
(1.04753 0.76368 0)
(1.0766 0.752272 0)
(1.10906 0.744672 0)
(1.13935 0.7397 0)
(1.1741 0.728334 0)
(1.21759 0.709038 0)
(3 2.71832e-08 0)
(3 1.61427e-07 0)
(3 5.82091e-07 0)
(2.99999 1.57384e-06 0)
(2.99999 4.30038e-06 0)
(2.99997 1.04195e-05 0)
(2.99993 2.69438e-05 0)
(2.99982 6.39672e-05 0)
(2.99956 0.000162705 0)
(2.9989 0.000388547 0)
(2.99733 0.000977535 0)
(2.99336 0.00236866 0)
(2.98366 0.00591976 0)
(2.95869 0.0147353 0)
(2.89199 0.0381921 0)
(2.70349 0.103847 0)
(2.15253 0.302558 0)
(1.36609 0.739303 0)
(1.07638 0.789972 0)
(1.0657 0.781143 0)
(1.08974 0.763269 0)
(1.12308 0.742561 0)
(1.15055 0.723666 0)
(1.17871 0.701014 0)
(1.21536 0.67374 0)
(3 2.05545e-08 0)
(3 1.24832e-07 0)
(3 4.39318e-07 0)
(3 1.21744e-06 0)
(2.99999 3.24316e-06 0)
(2.99998 8.02792e-06 0)
(2.99995 2.04097e-05 0)
(2.99987 4.89113e-05 0)
(2.99968 0.000124184 0)
(2.99921 0.000294588 0)
(2.99807 0.000749437 0)
(2.99524 0.00178652 0)
(2.98834 0.00452362 0)
(2.97094 0.0110642 0)
(2.92568 0.0285395 0)
(2.80197 0.0760053 0)
(2.44318 0.217661 0)
(1.63661 0.612966 0)
(1.16397 0.783143 0)
(1.09788 0.783831 0)
(1.10667 0.764854 0)
(1.13171 0.73345 0)
(1.15598 0.70129 0)
(1.18024 0.670401 0)
(1.21222 0.638215 0)
(3 1.48015e-08 0)
(3 9.34099e-08 0)
(3 3.18022e-07 0)
(3 9.09037e-07 0)
(2.99999 2.34646e-06 0)
(2.99998 5.94448e-06 0)
(2.99996 1.46737e-05 0)
(2.9999 3.5963e-05 0)
(2.99976 8.87822e-05 0)
(2.99942 0.000213687 0)
(2.99857 0.000532475 0)
(2.9965 0.00127051 0)
(2.99139 0.00318418 0)
(2.97867 0.00768129 0)
(2.94586 0.0194611 0)
(2.85718 0.0501127 0)
(2.60435 0.137845 0)
(1.91544 0.40763 0)
(1.26756 0.764383 0)
(1.11096 0.783451 0)
(1.10916 0.755665 0)
(1.12908 0.71856 0)
(1.15394 0.677899 0)
(1.17898 0.640267 0)
(1.20972 0.605116 0)
(3 1.05491e-08 0)
(3 7.05412e-08 0)
(3 2.30966e-07 0)
(3 6.86006e-07 0)
(3 1.7107e-06 0)
(2.99999 4.48508e-06 0)
(2.99997 1.07336e-05 0)
(2.99993 2.71848e-05 0)
(2.99982 6.52444e-05 0)
(2.99958 0.000162053 0)
(2.99895 0.000393844 0)
(2.99745 0.000965364 0)
(2.99368 0.00238413 0)
(2.98447 0.00583096 0)
(2.96085 0.014643 0)
(2.89819 0.0375077 0)
(2.72215 0.101748 0)
(2.21057 0.295997 0)
(1.44139 0.725183 0)
(1.1246 0.783214 0)
(1.09997 0.742644 0)
(1.12012 0.700575 0)
(1.14586 0.654399 0)
(1.17431 0.610907 0)
(1.20778 0.574834 0)
(3 7.63222e-09 0)
(3 5.0011e-08 0)
(3 1.68559e-07 0)
(3 4.85287e-07 0)
(3 1.24376e-06 0)
(2.99999 3.19787e-06 0)
(2.99998 7.71306e-06 0)
(2.99995 1.95731e-05 0)
(2.99987 4.62526e-05 0)
(2.99969 0.000117783 0)
(2.99924 0.000276023 0)
(2.99816 0.000705638 0)
(2.99544 0.0016612 0)
(2.98887 0.00422801 0)
(2.97223 0.0102077 0)
(2.92912 0.0263299 0)
(2.81143 0.0694055 0)
(2.47209 0.197968 0)
(1.68711 0.562099 0)
(1.17273 0.749367 0)
(1.0897 0.722061 0)
(1.10764 0.676265 0)
(1.13343 0.627718 0)
(1.16746 0.582167 0)
(1.20763 0.547886 0)
(3 5.52442e-09 0)
(3 3.4601e-08 0)
(3 1.19898e-07 0)
(3 3.3614e-07 0)
(3 8.83079e-07 0)
(2.99999 2.21085e-06 0)
(2.99998 5.47467e-06 0)
(2.99996 1.34533e-05 0)
(2.99991 3.27351e-05 0)
(2.99977 8.04157e-05 0)
(2.99944 0.000194091 0)
(2.9986 0.000479449 0)
(2.99662 0.00115164 0)
(2.99159 0.00285169 0)
(2.97923 0.00693768 0)
(2.94717 0.017388 0)
(2.86041 0.0448978 0)
(2.61327 0.122768 0)
(1.93346 0.36351 0)
(1.23611 0.716352 0)
(1.05212 0.700973 0)
(1.07222 0.647152 0)
(1.10853 0.596568 0)
(1.15442 0.554239 0)
(1.20538 0.524473 0)
(3 3.81532e-09 0)
(3 2.46669e-08 0)
(3 8.22872e-08 0)
(3 2.39497e-07 0)
(3 6.10899e-07 0)
(3 1.55583e-06 0)
(2.99999 3.84717e-06 0)
(2.99997 9.37075e-06 0)
(2.99993 2.33752e-05 0)
(2.99983 5.54081e-05 0)
(2.99957 0.000141012 0)
(2.99896 0.000328391 0)
(2.99742 0.00084554 0)
(2.99369 0.00197431 0)
(2.98432 0.00506592 0)
(2.96057 0.0122936 0)
(2.89717 0.0321094 0)
(2.71873 0.0866357 0)
(2.20333 0.25343 0)
(1.36759 0.643533 0)
(1.01633 0.6663 0)
(1.02665 0.613633 0)
(1.07737 0.564851 0)
(1.13907 0.527578 0)
(1.20167 0.503403 0)
(3 2.58955e-09 0)
(3 1.64745e-08 0)
(3 5.6451e-08 0)
(3 1.59669e-07 0)
(3 4.15322e-07 0)
(3 1.04384e-06 0)
(2.99999 2.56843e-06 0)
(2.99998 6.33887e-06 0)
(2.99994 1.52908e-05 0)
(2.99987 3.78792e-05 0)
(2.99967 9.05992e-05 0)
(2.99919 0.000225303 0)
(2.99799 0.000537812 0)
(2.9951 0.00134214 0)
(2.98783 0.00323428 0)
(2.96965 0.0080845 0)
(2.92183 0.0203935 0)
(2.78966 0.0543506 0)
(2.41028 0.15448 0)
(1.53262 0.451524 0)
(0.997832 0.586447 0)
(0.972435 0.563672 0)
(1.03642 0.530899 0)
(1.11528 0.501799 0)
(1.19134 0.484283 0)
(3 1.79986e-09 0)
(3 1.10399e-08 0)
(3 3.91962e-08 0)
(3 1.07134e-07 0)
(3 2.85732e-07 0)
(3 7.06728e-07 0)
(2.99999 1.74116e-06 0)
(2.99998 4.30589e-06 0)
(2.99996 1.02289e-05 0)
(2.99989 2.59068e-05 0)
(2.99973 5.94111e-05 0)
(2.99933 0.000154768 0)
(2.99835 0.000347282 0)
(2.99594 0.000914196 0)
(2.98993 0.00206846 0)
(2.97484 0.00534364 0)
(2.93536 0.0128988 0)
(2.82612 0.0339126 0)
(2.51063 0.0921225 0)
(1.67016 0.27304 0)
(0.977633 0.520582 0)
(0.892356 0.509723 0)
(0.972152 0.489881 0)
(1.07109 0.473782 0)
(1.16428 0.46493 0)
(3 1.37638e-09 0)
(3 7.60976e-09 0)
(3 2.9032e-08 0)
(3 7.35312e-08 0)
(3 2.12889e-07 0)
(3 4.85399e-07 0)
(2.99999 1.3188e-06 0)
(2.99998 2.97902e-06 0)
(2.99996 7.84873e-06 0)
(2.99991 1.80528e-05 0)
(2.99977 4.62384e-05 0)
(2.99943 0.000109227 0)
(2.99862 0.000271561 0)
(2.99654 0.000659868 0)
(2.99151 0.00160684 0)
(2.97866 0.00397845 0)
(2.94545 0.00990838 0)
(2.85403 0.0257772 0)
(2.58899 0.0706071 0)
(1.83758 0.204998 0)
(0.998758 0.487581 0)
(0.791966 0.453751 0)
(0.892429 0.434949 0)
(1.01401 0.438349 0)
(1.12153 0.440131 0)
(3 8.78901e-10 0)
(3 6.07715e-09 0)
(3 1.93887e-08 0)
(3 5.93668e-08 0)
(3 1.45245e-07 0)
(3 3.89238e-07 0)
(2.99999 9.24289e-07 0)
(2.99999 2.37205e-06 0)
(2.99997 5.68528e-06 0)
(2.99992 1.41747e-05 0)
(2.9998 3.48552e-05 0)
(2.99952 8.42178e-05 0)
(2.99881 0.000212641 0)
(2.99705 0.000504793 0)
(2.99269 0.00129311 0)
(2.98175 0.00311157 0)
(2.95344 0.00796806 0)
(2.87635 0.0205707 0)
(2.65345 0.0569083 0)
(2.0013 0.16486 0)
(1.04733 0.443797 0)
(0.697931 0.395856 0)
(0.824381 0.378684 0)
(0.966327 0.398698 0)
(1.07627 0.408355 0)
(3 6.54348e-10 0)
(3 4.24748e-09 0)
(3 1.4412e-08 0)
(3 4.16773e-08 0)
(3 1.07737e-07 0)
(3 2.78068e-07 0)
(3 6.80145e-07 0)
(2.99999 1.7219e-06 0)
(2.99997 4.16745e-06 0)
(2.99993 1.04827e-05 0)
(2.99983 2.54095e-05 0)
(2.99958 6.38929e-05 0)
(2.99897 0.000155215 0)
(2.99744 0.000390552 0)
(2.99369 0.000958747 0)
(2.98422 0.00241725 0)
(2.96 0.00606681 0)
(2.8946 0.0159036 0)
(2.70737 0.0438563 0)
(2.15359 0.128412 0)
(1.12255 0.376462 0)
(0.643195 0.351228 0)
(0.787503 0.346074 0)
(0.938982 0.365205 0)
(1.03954 0.373642 0)
(3 4.98086e-10 0)
(3 3.03994e-09 0)
(3 1.06174e-08 0)
(3 2.9716e-08 0)
(3 7.85757e-08 0)
(3 1.94996e-07 0)
(3 4.99314e-07 0)
(2.99999 1.18356e-06 0)
(2.99997 3.0735e-06 0)
(2.99994 7.11371e-06 0)
(2.99985 1.88024e-05 0)
(2.99963 4.31016e-05 0)
(2.99908 0.000114594 0)
(2.99772 0.000263637 0)
(2.99438 0.000698078 0)
(2.98601 0.00163754 0)
(2.96469 0.00428247 0)
(2.90783 0.0108407 0)
(2.74662 0.0297635 0)
(2.27328 0.0860953 0)
(1.20474 0.26379 0)
(0.618252 0.303047 0)
(0.758691 0.326463 0)
(0.907442 0.335908 0)
(1.00008 0.338551 0)
(3 3.50806e-10 0)
(3 2.42608e-09 0)
(3 7.5013e-09 0)
(3 2.36781e-08 0)
(3 5.55963e-08 0)
(3 1.52739e-07 0)
(3 3.55458e-07 0)
(2.99999 9.08459e-07 0)
(2.99998 2.21219e-06 0)
(2.99994 5.34186e-06 0)
(2.99986 1.36022e-05 0)
(2.99966 3.14816e-05 0)
(2.99915 8.35593e-05 0)
(2.99792 0.000187202 0)
(2.99483 0.000506821 0)
(2.9872 0.00114754 0)
(2.96767 0.00303663 0)
(2.9158 0.00747034 0)
(2.76946 0.0201517 0)
(2.3371 0.0564149 0)
(1.27214 0.168851 0)
(0.607289 0.274114 0)
(0.727263 0.318781 0)
(0.862464 0.309019 0)
(0.954054 0.304266 0)
(3 3.17503e-10 0)
(3 1.81188e-09 0)
(3 6.66707e-09 0)
(3 1.75071e-08 0)
(3 4.92424e-08 0)
(3 1.14797e-07 0)
(3 3.11004e-07 0)
(2.99999 7.0375e-07 0)
(2.99998 1.89011e-06 0)
(2.99995 4.26026e-06 0)
(2.99987 1.13828e-05 0)
(2.99968 2.57381e-05 0)
(2.99921 6.82259e-05 0)
(2.99807 0.000155801 0)
(2.99518 0.000405473 0)
(2.98812 0.000952885 0)
(2.96996 0.00243447 0)
(2.92203 0.00608025 0)
(2.78694 0.0162117 0)
(2.38881 0.0453821 0)
(1.35644 0.13468 0)
(0.640601 0.267207 0)
(0.700101 0.300755 0)
(0.810975 0.281687 0)
(0.910819 0.272675 0)
(3 2.64098e-10 0)
(3 1.51349e-09 0)
(3 5.84807e-09 0)
(3 1.4737e-08 0)
(3 4.31895e-08 0)
(3 1.00475e-07 0)
(3 2.65769e-07 0)
(2.99999 6.38359e-07 0)
(2.99998 1.56747e-06 0)
(2.99995 3.96426e-06 0)
(2.99988 9.26821e-06 0)
(2.99971 2.42575e-05 0)
(2.99926 5.46633e-05 0)
(2.9982 0.000147652 0)
(2.99549 0.000327051 0)
(2.9889 0.000883481 0)
(2.97194 0.00205071 0)
(2.92729 0.00541775 0)
(2.8019 0.0141009 0)
(2.43321 0.0397071 0)
(1.44583 0.1159 0)
(0.688004 0.256818 0)
(0.679457 0.265856 0)
(0.778594 0.255069 0)
(0.880478 0.246259 0)
(3 2.51588e-10 0)
(3 1.38321e-09 0)
(3 5.2798e-09 0)
(3 1.36418e-08 0)
(3 3.88872e-08 0)
(3 9.25438e-08 0)
(3 2.41602e-07 0)
(2.99999 5.69757e-07 0)
(2.99998 1.46274e-06 0)
(2.99995 3.43609e-06 0)
(2.99989 8.67911e-06 0)
(2.99972 2.08992e-05 0)
(2.99931 5.13183e-05 0)
(2.9983 0.000126384 0)
(2.9958 0.00030816 0)
(2.98955 0.000767811 0)
(2.97373 0.00189512 0)
(2.93207 0.0048157 0)
(2.81531 0.0127519 0)
(2.4726 0.0355644 0)
(1.53072 0.103187 0)
(0.736478 0.245433 0)
(0.662408 0.239245 0)
(0.756513 0.229674 0)
(0.859112 0.22284 0)
(3 1.81591e-10 0)
(3 1.56352e-09 0)
(3 4.31252e-09 0)
(3 1.51646e-08 0)
(3 3.20341e-08 0)
(3 9.90771e-08 0)
(3 1.9873e-07 0)
(2.99999 6.06211e-07 0)
(2.99998 1.20758e-06 0)
(2.99996 3.6245e-06 0)
(2.99989 7.33321e-06 0)
(2.99974 2.14529e-05 0)
(2.99935 4.5207e-05 0)
(2.99842 0.000124994 0)
(2.99603 0.000279551 0)
(2.99022 0.000730949 0)
(2.97531 0.00172123 0)
(2.93632 0.00447209 0)
(2.8274 0.0115675 0)
(2.50773 0.0323259 0)
(1.61297 0.0939414 0)
(0.782371 0.234286 0)
(0.64304 0.217202 0)
(0.739943 0.204134 0)
(0.846388 0.201478 0)
(3 1.80067e-10 0)
(3 1.38023e-09 0)
(3 4.18386e-09 0)
(3 1.33036e-08 0)
(3 3.12392e-08 0)
(3 8.66345e-08 0)
(3 1.94565e-07 0)
(2.99999 5.32686e-07 0)
(2.99998 1.17038e-06 0)
(2.99996 3.21962e-06 0)
(2.9999 7.04828e-06 0)
(2.99975 1.92412e-05 0)
(2.9994 4.28134e-05 0)
(2.9985 0.000113688 0)
(2.9963 0.000262149 0)
(2.99075 0.000673518 0)
(2.97685 0.00161772 0)
(2.94022 0.00414478 0)
(2.83851 0.0107704 0)
(2.5401 0.0299753 0)
(1.69181 0.0867456 0)
(0.82465 0.223383 0)
(0.619814 0.197675 0)
(0.725817 0.1812 0)
(0.839601 0.181878 0)
(3 2.00379e-10 0)
(3 1.16388e-09 0)
(3 4.30509e-09 0)
(3 1.13625e-08 0)
(3 3.2245e-08 0)
(3 7.5314e-08 0)
(3 2.0181e-07 0)
(2.99999 4.65577e-07 0)
(2.99998 1.20278e-06 0)
(2.99996 2.83573e-06 0)
(2.99991 7.11728e-06 0)
(2.99977 1.71865e-05 0)
(2.99943 4.19139e-05 0)
(2.9986 0.000104579 0)
(2.9965 0.000248951 0)
(2.99135 0.000632185 0)
(2.9782 0.00152362 0)
(2.94392 0.0038866 0)
(2.84885 0.0100658 0)
(2.57005 0.0279732 0)
(1.76696 0.080556 0)
(0.862416 0.212274 0)
(0.592737 0.178972 0)
(0.713105 0.161221 0)
(0.836689 0.162732 0)
(3 2.03957e-10 0)
(3 1.0084e-09 0)
(3 4.32084e-09 0)
(3 9.85575e-09 0)
(3 3.1684e-08 0)
(3 6.73889e-08 0)
(3 1.95241e-07 0)
(2.99999 4.27198e-07 0)
(2.99999 1.14138e-06 0)
(2.99996 2.69589e-06 0)
(2.99991 6.59313e-06 0)
(2.99978 1.67816e-05 0)
(2.99947 3.78757e-05 0)
(2.99867 0.00010474 0)
(2.99674 0.000219239 0)
(2.99182 0.000630302 0)
(2.97956 0.00136538 0)
(2.94733 0.00371724 0)
(2.85843 0.00928868 0)
(2.59809 0.0260472 0)
(1.83822 0.0746115 0)
(0.895744 0.200376 0)
(0.563321 0.161002 0)
(0.700961 0.143432 0)
(0.834824 0.143791 0)
(3 1.45467e-10 0)
(3 1.02823e-09 0)
(3 3.18537e-09 0)
(3 1.00523e-08 0)
(3 2.38774e-08 0)
(3 6.62293e-08 0)
(3 1.53245e-07 0)
(2.99999 4.02931e-07 0)
(2.99999 9.61415e-07 0)
(2.99997 2.40632e-06 0)
(2.99992 5.95431e-06 0)
(2.9998 1.43176e-05 0)
(2.9995 3.66914e-05 0)
(2.99875 8.53406e-05 0)
(2.99693 0.000223625 0)
(2.9923 0.000519262 0)
(2.98076 0.00134696 0)
(2.95053 0.00328882 0)
(2.86729 0.00867897 0)
(2.62393 0.0237981 0)
(1.90546 0.0686368 0)
(0.924824 0.187263 0)
(0.533074 0.143545 0)
(0.69033 0.126095 0)
(0.834665 0.125371 0)
(3 1.0722e-10 0)
(3 8.90315e-10 0)
(3 2.3887e-09 0)
(3 8.79035e-09 0)
(3 1.82463e-08 0)
(3 5.75434e-08 0)
(3 1.20745e-07 0)
(2.99999 3.47702e-07 0)
(2.99999 7.95367e-07 0)
(2.99997 2.04125e-06 0)
(2.99992 5.1605e-06 0)
(2.99981 1.199e-05 0)
(2.99953 3.32987e-05 0)
(2.99883 6.9793e-05 0)
(2.9971 0.000211427 0)
(2.99275 0.000429723 0)
(2.98186 0.00126413 0)
(2.95342 0.00288236 0)
(2.87547 0.00791564 0)
(2.64736 0.021446 0)
(1.96883 0.0622155 0)
(0.950652 0.17236 0)
(0.503611 0.126065 0)
(0.681433 0.108734 0)
(0.835442 0.106834 0)
(3 1.21285e-10 0)
(3 5.6138e-10 0)
(3 2.48257e-09 0)
(3 5.53297e-09 0)
(3 1.79845e-08 0)
(3 3.84727e-08 0)
(3 1.13678e-07 0)
(3 2.47961e-07 0)
(2.99999 7.03234e-07 0)
(2.99997 1.6123e-06 0)
(2.99993 4.28077e-06 0)
(2.99982 1.04716e-05 0)
(2.99955 2.62047e-05 0)
(2.9989 6.69956e-05 0)
(2.99723 0.000160798 0)
(2.99318 0.000420762 0)
(2.98281 0.00100621 0)
(2.95605 0.00263926 0)
(2.88277 0.00678466 0)
(2.66862 0.0189825 0)
(2.02719 0.0549525 0)
(0.973252 0.155376 0)
(0.475167 0.108392 0)
(0.673215 0.0912835 0)
(0.835203 0.0882834 0)
(3 9.67306e-11 0)
(3 3.76239e-10 0)
(3 1.98971e-09 0)
(3 3.69689e-09 0)
(3 1.48394e-08 0)
(3 2.65204e-08 0)
(3 9.42245e-08 0)
(3 1.81932e-07 0)
(2.99999 5.64798e-07 0)
(2.99997 1.24266e-06 0)
(2.99993 3.38385e-06 0)
(2.99983 8.4227e-06 0)
(2.99958 2.00674e-05 0)
(2.99894 5.70994e-05 0)
(2.9974 0.000120833 0)
(2.99346 0.000365573 0)
(2.98371 0.000793614 0)
(2.95825 0.00223719 0)
(2.88905 0.00562319 0)
(2.68749 0.0160141 0)
(2.07997 0.0469157 0)
(0.993088 0.136294 0)
(0.450282 0.0906678 0)
(0.666303 0.0742515 0)
(0.833909 0.0706003 0)
(3 3.72924e-11 0)
(3 3.29114e-10 0)
(3 8.99967e-10 0)
(3 3.30517e-09 0)
(3 7.07488e-09 0)
(3 2.25856e-08 0)
(3 4.71206e-08 0)
(3 1.46513e-07 0)
(2.99999 3.16817e-07 0)
(2.99997 9.14769e-07 0)
(2.99993 2.16842e-06 0)
(2.99983 5.7605e-06 0)
(2.99959 1.47242e-05 0)
(2.99898 3.69202e-05 0)
(2.99749 9.88719e-05 0)
(2.99374 0.00024141 0)
(2.98437 0.000649364 0)
(2.9601 0.00164082 0)
(2.89423 0.00446225 0)
(2.70338 0.0125225 0)
(2.12699 0.0379221 0)
(1.01162 0.113301 0)
(0.431925 0.0722039 0)
(0.661258 0.0579681 0)
(0.832178 0.0542423 0)
(3 -4.16816e-12 0)
(3 2.87399e-10 0)
(3 1.66344e-10 0)
(3 2.8629e-09 0)
(3 1.76015e-09 0)
(3 1.86233e-08 0)
(3 1.41781e-08 0)
(3 1.15537e-07 0)
(2.99999 1.18614e-07 0)
(2.99997 6.9102e-07 0)
(2.99994 9.73034e-07 0)
(2.99984 4.11818e-06 0)
(2.9996 7.91353e-06 0)
(2.99901 2.41283e-05 0)
(2.99757 6.15739e-05 0)
(2.99392 0.000151573 0)
(2.98488 0.000433623 0)
(2.96143 0.00108543 0)
(2.89823 0.00308418 0)
(2.71574 0.00874796 0)
(2.16645 0.0274902 0)
(1.0287 0.0840781 0)
(0.419426 0.0524364 0)
(0.657147 0.0423263 0)
(0.829987 0.0389015 0)
(3 3.20871e-11 0)
(3 6.33248e-11 0)
(3 4.28686e-10 0)
(3 6.21607e-10 0)
(3 3.42083e-09 0)
(3 2.63773e-09 0)
(3 2.80311e-08 0)
(3 7.16355e-09 0)
(2.99999 1.98238e-07 0)
(2.99997 2.78093e-08 0)
(2.99994 1.30836e-06 0)
(2.99984 2.49908e-07 0)
(2.99961 8.19757e-06 0)
(2.99903 3.54718e-06 0)
(2.9976 4.92592e-05 0)
(2.99405 4.3736e-05 0)
(2.98515 0.00028295 0)
(2.9623 0.000486339 0)
(2.9008 0.00175821 0)
(2.72415 0.00477079 0)
(2.1947 0.0157612 0)
(1.04155 0.049228 0)
(0.410994 0.031878 0)
(0.653561 0.0264449 0)
(0.827701 0.0235758 0)
(3 2.99186e-11 0)
(3 -4.81322e-11 0)
(3 3.50937e-10 0)
(3 -4.67655e-10 0)
(3 2.37673e-09 0)
(3 -3.6985e-09 0)
(3 1.66595e-08 0)
(3 -2.75647e-08 0)
(2.99999 1.07905e-07 0)
(2.99997 -1.53974e-07 0)
(2.99994 6.4838e-07 0)
(2.99984 -7.44629e-07 0)
(2.99961 3.7238e-06 0)
(2.99904 -2.16963e-06 0)
(2.9976 1.88947e-05 0)
(2.99411 3.01898e-06 0)
(2.98525 9.11969e-05 0)
(2.96269 0.000121081 0)
(2.90185 0.000526373 0)
(2.72802 0.00140695 0)
(2.20779 0.00479963 0)
(1.04802 0.015429 0)
(0.4072 0.0110256 0)
(0.651287 0.00951111 0)
(0.82602 0.00832893 0)
(1.11434 0.991832 0)
(0.994789 0.698426 0)
(0.108979 0.428637 0)
(-0.4037 0.0213996 0)
(-0.515712 -0.013385 0)
(-0.657532 -0.0249713 0)
(-0.702195 -0.0208522 0)
(-0.721694 -0.00164967 0)
(-0.743632 0.013096 0)
(-0.773741 0.016914 0)
(-0.796085 0.015627 0)
(-0.802646 0.0104272 0)
(-0.799459 0.00400978 0)
(-0.792575 -0.00165603 0)
(-0.78325 -0.00348547 0)
(-0.768464 -0.00400571 0)
(-0.74672 -0.00469961 0)
(-0.718677 -0.00575858 0)
(-0.685438 -0.00676163 0)
(-0.648112 -0.00768261 0)
(-0.607582 -0.00856197 0)
(-0.564616 -0.00941731 0)
(-0.51982 -0.010307 0)
(-0.47369 -0.0113485 0)
(-0.424969 -0.0134771 0)
(-0.375563 -0.014699 0)
(-0.326024 -0.0159852 0)
(-0.276769 -0.0172125 0)
(-0.228026 -0.0185771 0)
(-0.179637 -0.0197869 0)
(-0.131557 -0.020829 0)
(-0.0839718 -0.0218177 0)
(-0.0376377 -0.0234024 0)
(0.0117845 -0.0253415 0)
(0.0612911 -0.0239121 0)
(0.105921 -0.0223627 0)
(0.150097 -0.0215601 0)
(0.192629 -0.0210346 0)
(0.233615 -0.0202557 0)
(0.273386 -0.0195759 0)
(0.310563 -0.0187692 0)
(0.347017 -0.0184214 0)
(0.385201 -0.0186809 0)
(0.423478 -0.0184369 0)
(0.460147 -0.0177506 0)
(0.495508 -0.0170756 0)
(0.529906 -0.0164539 0)
(0.563529 -0.0159338 0)
(0.596337 -0.0154244 0)
(0.628425 -0.0149194 0)
(0.659813 -0.0144265 0)
(0.690514 -0.0139395 0)
(0.720565 -0.013455 0)
(0.749977 -0.0129833 0)
(0.778764 -0.0125071 0)
(0.806951 -0.012046 0)
(0.834539 -0.0115836 0)
(0.861553 -0.0111356 0)
(0.887999 -0.01069 0)
(0.913903 -0.0102567 0)
(0.939266 -0.00982998 0)
(0.964109 -0.00940979 0)
(0.988439 -0.00899795 0)
(1.01227 -0.00859018 0)
(1.0356 -0.00818938 0)
(1.05846 -0.00779258 0)
(1.08083 -0.00740133 0)
(1.10273 -0.00701535 0)
(1.12417 -0.00663582 0)
(1.14514 -0.00626359 0)
(1.16565 -0.00590018 0)
(1.18572 -0.00554624 0)
(1.20534 -0.0052038 0)
(1.22452 -0.00487318 0)
(1.24327 -0.00455531 0)
(1.26159 -0.00425004 0)
(1.27949 -0.00395839 0)
(1.29696 -0.00367928 0)
(1.314 -0.00341344 0)
(1.3306 -0.00316151 0)
(1.34674 -0.0029236 0)
(1.36241 -0.0027003 0)
(1.37756 -0.00249133 0)
(1.39217 -0.00230455 0)
(1.40619 -0.00213803 0)
(1.41956 -0.00198875 0)