/*--------------------------------*- C++ -*----------------------------------*\
  =========                 |
  \\      /  F ield         | OpenFOAM: The Open Source CFD Toolbox
   \\    /   O peration     | Website:  https://openfoam.org
    \\  /    A nd           | Version:  13
     \\/     M anipulation  |
\*---------------------------------------------------------------------------*/
FoamFile
{
    format      ascii;
    class       surfaceScalarField;
    location    "6.5";
    object      phi;
}
// * * * * * * * * * * * * * * * * * * * * * * * * * * * * * * * * * * * * * //

dimensions      [1 0 -1 0 0 0 0];

internalField   nonuniform List<scalar> 
10325
(
0.0840003
-2.09979e-11
0.084
9.56335e-09
0.0840011
3.38838e-09
0.0839984
8.97229e-08
0.0840047
5.49753e-08
0.0839898
5.02455e-07
0.0840229
6.53513e-07
0.083949
2.55274e-06
0.0840788
5.3939e-06
0.0838521
1.27958e-05
0.0840819
3.61419e-05
0.0837202
9.13536e-05
0.0835886
0.000312547
0.0823203
0.0011651
0.0763277
0.00593947
0.0699169
0.00642746
0.0637361
0.00618396
0.0573107
0.00641846
0.0505659
0.00673704
0.0434129
0.007144
0.035746
0.0076572
0.0275465
0.00818673
0.0188683
0.00866845
0.00970543
0.00916085
0.00970179
0.0840003
3.05123e-09
0.0840006
5.23205e-09
0.0839996
5.5179e-08
0.084002
5.70019e-08
0.0839964
3.80952e-07
0.0840091
4.86981e-07
0.0839798
2.15199e-06
0.0840366
3.57262e-06
0.0839217
1.16133e-05
0.0840819
2.5497e-05
0.0838132
7.00845e-05
0.0839454
0.000196076
0.0834584
0.000623661
0.082312
0.00236624
0.076302
0.0118633
0.0697795
0.0129637
0.0636758
0.012291
0.0573353
0.0127522
0.0506336
0.0134311
0.0434172
0.0143516
0.0356672
0.0153976
0.0273922
0.0164493
0.0186115
0.0174395
0.00940664
0.0183636
0.0191046
0.0840003
2.5361e-09
0.0840001
1.58488e-08
0.0840008
5.49561e-08
0.083999
1.56237e-07
0.0840032
4.09666e-07
0.0839914
1.03785e-06
0.0840188
2.61339e-06
0.0839533
6.3075e-06
0.0840761
1.62188e-05
0.0838503
3.93149e-05
0.0840847
0.000105967
0.0837183
0.00029297
0.083593
0.000939355
0.0823422
0.00349992
0.0766691
0.0174791
0.0700772
0.0195749
0.0640104
0.0183618
0.0577465
0.0190092
0.0511076
0.0200632
0.0438983
0.0215525
0.0361133
0.0231723
0.0277692
0.0247803
0.0188805
0.0263198
0.00952811
0.0277112
0.0286246
0.0840003
3.28676e-09
0.0840001
2.11717e-08
0.0840007
6.95399e-08
0.0839993
2.04639e-07
0.0840026
5.1783e-07
0.0839926
1.33391e-06
0.0840157
3.35161e-06
0.0839582
8.27665e-06
0.0840679
2.09917e-05
0.0838598
5.25891e-05
0.0840818
0.00013761
0.0837309
0.000386279
0.0836398
0.00122193
0.0825077
0.00450709
0.0775091
0.02242
0.0708714
0.026234
0.0648094
0.0244282
0.0586213
0.0251909
0.0520563
0.0266194
0.0449184
0.0286826
0.037139
0.0309468
0.0287142
0.0331925
0.0196197
0.035403
0.00996435
0.0373662
0.0385868
0.0840003
2.84411e-09
0.0840002
2.87627e-08
0.0840003
7.1165e-08
0.084
2.82986e-07
0.0840011
5.41332e-07
0.0839956
1.86572e-06
0.0840094
3.51658e-06
0.0839694
1.13014e-05
0.0840439
2.31992e-05
0.0839004
6.69404e-05
0.0840411
0.000162254
0.0837912
0.000468315
0.0836865
0.00145481
0.0827926
0.00530301
0.0790331
0.0261129
0.0723173
0.032972
0.0661725
0.0305783
0.0600142
0.0313429
0.0535341
0.033092
0.0464516
0.0357578
0.0387005
0.0386889
0.030223
0.0416568
0.0209162
0.0447009
0.010734
0.0475563
0.0493271
0.0840003
5.37568e-09
0.0840005
2.38297e-08
0.0839997
1.08433e-07
0.0840019
2.32129e-07
0.0839965
7.92186e-07
0.0840095
1.6026e-06
0.0839802
4.88945e-06
0.0840459
1.04874e-05
0.0839077
2.92399e-05
0.0841332
6.96184e-05
0.083792
0.000186159
0.0840761
0.000512636
0.0836671
0.0015954
0.0833534
0.00572784
0.0817065
0.0276524
0.0748577
0.0398387
0.0683935
0.0370491
0.0621546
0.0375784
0.0557332
0.0395088
0.0487287
0.0427579
0.0409796
0.0464301
0.0323811
0.0502459
0.0227558
0.0543197
0.0119271
0.0583815
0.061252
0.0840003
3.25086e-09
0.0840002
3.16894e-08
0.0840007
8.00646e-08
0.0839993
3.1118e-07
0.084003
6.17575e-07
0.0839931
2.03538e-06
0.084018
4.05605e-06
0.0839619
1.2411e-05
0.0840816
2.64156e-05
0.083866
7.49687e-05
0.0841657
0.000181682
0.0838375
0.000518701
0.0841044
0.00157064
0.0841364
0.00555172
0.0861619
0.0255682
0.0791792
0.0468321
0.0718721
0.0443628
0.065383
0.0440657
0.0588939
0.0459954
0.0519327
0.0497127
0.0441876
0.0541692
0.0354639
0.0589612
0.0254829
0.0642953
0.0137813
0.0700808
0.0750286
0.0840003
5.02141e-09
0.0840004
2.15841e-08
0.084
9.90767e-08
0.0840011
2.09472e-07
0.0839984
7.25561e-07
0.0840059
1.38748e-06
0.0839878
4.54173e-06
0.0840348
8.68021e-06
0.0839394
2.71619e-05
0.0841362
5.66519e-05
0.0838859
0.000162726
0.0842972
0.000409411
0.0843628
0.00124167
0.085898
0.00414787
0.0934206
0.0179599
0.0863431
0.0538941
0.077028
0.0536699
0.0700593
0.0510318
0.0633548
0.0526958
0.0563005
0.0567621
0.0485079
0.0619518
0.0396621
0.0678
0.0294109
0.0745376
0.0167908
0.0826959
0.0918154
0.0840003
2.96612e-09
0.0840003
2.50331e-08
0.0840003
7.00449e-08
0.0840002
2.44557e-07
0.0840008
5.1639e-07
0.0839982
1.63532e-06
0.0840069
3.17223e-06
0.0839827
1.01264e-05
0.0840425
1.95669e-05
0.0839395
6.00685e-05
0.0841176
0.000131381
0.0839836
0.000379014
0.0842938
0.00106287
0.0847937
0.00355179
0.0878213
0.0149293
0.0860474
0.0556156
0.0793094
0.0603809
0.0737128
0.0566266
0.0672746
0.0591316
0.0609191
0.063108
0.053567
0.0692962
0.0452631
0.0760942
0.0354417
0.0843532
0.0219604
0.0961729
0.113773
0.0840003
3.92947e-09
0.0840003
2.08025e-08
0.0840005
7.93123e-08
0.084
2.02231e-07
0.0840006
5.92747e-07
0.0840002
1.28902e-06
0.0839983
3.84722e-06
0.0840056
7.68125e-06
0.0839858
2.36198e-05
0.0840228
4.84071e-05
0.0839843
0.000141081
0.0840321
0.000343461
0.0840733
0.00102283
0.0843216
0.00330236
0.0859656
0.0132423
0.0842394
0.0572839
0.0818609
0.0627489
0.0761145
0.0623692
0.0708205
0.0644185
0.0653972
0.0685212
0.0593623
0.0753214
0.0525297
0.0829149
0.0435454
0.0933271
0.0306827
0.109027
0.144452
0.0840003
3.237e-09
0.0840004
2.19175e-08
0.0840001
7.23755e-08
0.0840008
2.13953e-07
0.0839994
5.40775e-07
0.0840018
1.43117e-06
0.0839982
3.38561e-06
0.0839999
8.87567e-06
0.0839985
2.08096e-05
0.0839982
5.38141e-05
0.0839912
0.00013207
0.0840155
0.000351979
0.0839993
0.000989456
0.0841164
0.00319824
0.0851183
0.0122149
0.0850177
0.0573231
0.0815107
0.0662528
0.0776222
0.0662546
0.0740005
0.0680329
0.0697432
0.0727674
0.0657621
0.0792926
0.0610599
0.087606
0.0565895
0.0977855
0.0559462
0.10966
0.114115
0.0862693
0.0840003
3.16975e-09
0.0840004
2.26452e-08
0.0840001
7.17198e-08
0.084001
2.2169e-07
0.083999
5.31155e-07
0.0840037
1.4743e-06
0.0839935
3.31432e-06
0.0840145
9.13836e-06
0.0839718
2.03173e-05
0.0840472
5.59447e-05
0.0839224
0.000130307
0.084083
0.000357296
0.0839141
0.00097631
0.0841109
0.00311841
0.0847785
0.0114762
0.0871027
0.0549344
0.083498
0.06986
0.0797063
0.0700461
0.0765937
0.0711395
0.0736819
0.075667
0.0708945
0.0820677
0.0685864
0.0899013
0.067777
0.0985804
0.0717339
0.105681
0.104642
0.0811868
0.0840003
3.63573e-09
0.0840004
1.94543e-08
0.0840002
7.53217e-08
0.0840007
1.90595e-07
0.0839993
5.59062e-07
0.084003
1.27392e-06
0.0839934
3.55831e-06
0.0840183
7.92288e-06
0.0839609
2.19878e-05
0.0840883
4.97935e-05
0.0838633
0.000135973
0.0841916
0.000335852
0.0838841
0.000952209
0.0843345
0.00292026
0.0851825
0.0104703
0.0919746
0.0480915
0.0878513
0.0739917
0.0831409
0.0747611
0.0800218
0.0742584
0.0777835
0.0778946
0.076038
0.0837993
0.0755299
0.0903944
0.0773939
0.0967013
0.082211
0.100845
0.0989449
0.0878764
0.0840003
2.66968e-09
0.0840004
1.94093e-08
0.0840002
6.13992e-08
0.0840007
1.88134e-07
0.0839996
4.5901e-07
0.0840023
1.25449e-06
0.0839975
2.87032e-06
0.0840073
7.87119e-06
0.0839932
1.74716e-05
0.0840249
4.84875e-05
0.0839965
0.000110837
0.0841087
0.00030283
0.0841604
0.000791411
0.0847734
0.00239492
0.0870155
0.008169
0.100742
0.0342788
0.0946089
0.0801303
0.0893074
0.080066
0.0849985
0.0785696
0.0825535
0.0803346
0.0815447
0.0847976
0.0819875
0.0899358
0.0842766
0.0943932
0.0884733
0.0966239
0.0943475
0.0930442
0.0840003
2.63341e-09
0.0840003
1.45785e-08
0.0840003
5.59818e-08
0.0840003
1.42462e-07
0.0840005
4.09842e-07
0.0840006
9.53125e-07
0.0840002
2.54833e-06
0.0840054
5.90355e-06
0.0839939
1.53739e-05
0.0840388
3.62293e-05
0.0839894
9.27463e-05
0.0841647
0.000228771
0.0842322
0.000608707
0.0849875
0.00172945
0.087448
0.00563065
0.0993251
0.0223901
0.0994958
0.0799216
0.0957205
0.0838342
0.09029
0.0839954
0.0876111
0.0830054
0.0867457
0.0856548
0.0873826
0.0892864
0.0895181
0.0922428
0.0929723
0.0931441
0.090597
0.0966921
0.0840003
2.08477e-09
0.0840003
1.30489e-08
0.0840005
4.50099e-08
0.084
1.27602e-07
0.0840012
3.35371e-07
0.083999
8.3615e-07
0.0840048
2.10989e-06
0.0839942
5.12541e-06
0.0840201
1.28371e-05
0.0839786
3.11527e-05
0.0840747
7.83869e-05
0.0839778
0.000194553
0.0842456
0.000508772
0.0843765
0.00141753
0.0856092
0.00450593
0.0909225
0.0169998
0.0997696
0.0710099
0.0976773
0.0859141
0.0946297
0.087035
0.0920129
0.0856161
0.0912089
0.0864478
0.0918481
0.0886323
0.0936956
0.09038
0.0964501
0.0903684
0.0876569
0.0993612
0.0840003
1.81029e-09
0.0840003
1.15533e-08
0.0840005
3.85989e-08
0.0840001
1.12693e-07
0.084001
2.87689e-07
0.0839991
7.34697e-07
0.084004
1.85669e-06
0.0839947
4.42716e-06
0.0840186
1.15721e-05
0.0839751
2.66841e-05
0.0840737
7.12604e-05
0.0839465
0.000167652
0.0842105
0.0004527
0.0841754
0.00121564
0.085069
0.00378392
0.0884293
0.0135336
0.10116
0.0582102
0.100384
0.0866893
0.0979991
0.0894145
0.0956715
0.0879417
0.0950069
0.0871049
0.0955573
0.0880683
0.0970601
0.0888607
0.0992035
0.0882037
0.0854268
0.101408
0.0840003
1.47589e-09
0.0840003
9.34773e-09
0.0840003
3.25818e-08
0.0840005
9.14395e-08
0.0840002
2.40501e-07
0.0840009
6.17136e-07
0.0840003
1.4857e-06
0.084001
3.87498e-06
0.0840059
8.95742e-06
0.0839961
2.3846e-05
0.0840416
5.47403e-05
0.0840046
0.000146812
0.0841805
0.00035589
0.0843281
0.000983609
0.0853085
0.0028675
0.0889844
0.00978549
0.108124
0.0389903
0.105324
0.0894794
0.103701
0.0910382
0.100689
0.0909513
0.0989869
0.0888011
0.0989923
0.0880512
0.100026
0.0878143
0.101588
0.0866244
0.0838029
0.103188
0.0840003
1.20948e-09
0.0840003
7.38999e-09
0.0840004
2.58247e-08
0.0840002
7.20352e-08
0.0840007
1.92156e-07
0.0839998
4.69721e-07
0.0840026
1.21666e-06
0.0839983
2.84087e-06
0.0840113
7.40858e-06
0.0839944
1.7037e-05
0.0840482
4.46996e-05
0.0840117
0.000104006
0.0842182
0.00027272
0.0843368
0.000690773
0.0854031
0.00196857
0.0888305
0.00625086
0.10395
0.023849
0.110573
0.0828172
0.108339
0.0932613
0.105305
0.0939761
0.102991
0.0911074
0.102329
0.0887025
0.102817
0.0873107
0.103819
0.085605
0.0827146
0.104889
0.0840003
8.48777e-10
0.0840003
6.22856e-09
0.0840003
1.92465e-08
0.0840003
6.07056e-08
0.0840004
1.43188e-07
0.0840002
3.97806e-07
0.0840015
9.00396e-07
0.0839986
2.42144e-06
0.0840098
5.49255e-06
0.0839881
1.44468e-05
0.0840584
3.36296e-05
0.0839497
8.65983e-05
0.0842329
0.000210726
0.0840686
0.00054896
0.084856
0.00149487
0.0862104
0.00462371
0.0933188
0.0168511
0.109855
0.0661573
0.11041
0.0926914
0.1088
0.0955757
0.106318
0.0935834
0.105408
0.089602
0.105436
0.0872712
0.105953
0.0850724
0.0820969
0.106551
0.0840003
7.76841e-10
0.0840003
4.45722e-09
0.0840003
1.658e-08
0.0840004
4.35616e-08
0.0840002
1.2206e-07
0.0840009
2.92183e-07
0.0839995
7.54545e-07
0.0840041
1.81986e-06
0.0839959
4.51565e-06
0.0840212
1.12066e-05
0.0839798
2.69505e-05
0.084095
6.90294e-05
0.0839682
0.000165712
0.0843261
0.000434529
0.0843879
0.00114255
0.0858464
0.0033957
0.090968
0.0115839
0.113036
0.0440088
0.113698
0.09201
0.113267
0.0960034
0.111224
0.0956233
0.108918
0.0919022
0.108132
0.088045
0.108139
0.0850554
0.0818971
0.108326
0.0840003
5.30994e-10
0.0840003
3.55297e-09
0.0840004
1.1604e-08
0.0840003
3.46331e-08
0.0840005
8.64939e-08
0.0840002
2.24631e-07
0.0840013
5.49435e-07
0.0839998
1.34703e-06
0.0840047
3.36561e-06
0.0840014
7.96763e-06
0.0840155
2.04712e-05
0.0840254
4.73256e-05
0.0840808
0.000124012
0.0841921
0.000294858
0.084593
0.000787975
0.0857584
0.0021665
0.0904632
0.00688829
0.109089
0.0253509
0.118279
0.0827484
0.117278
0.0969906
0.114907
0.0979838
0.112333
0.0944704
0.11102
0.0893534
0.110459
0.0856099
0.0821266
0.110216
0.0840003
4.06681e-10
0.0840003
2.59365e-09
0.0840003
8.92632e-09
0.0840004
2.5313e-08
0.0840003
6.58455e-08
0.0840007
1.6778e-07
0.0840001
4.07722e-07
0.0840021
1.03144e-06
0.0839994
2.44862e-06
0.0840084
6.21359e-06
0.0839998
1.46674e-05
0.0840339
3.74786e-05
0.0840242
8.88351e-05
0.084162
0.000228375
0.0842668
0.000569646
0.0849993
0.00156288
0.0870567
0.00471421
0.0955254
0.0168988
0.116825
0.0613298
0.119143
0.0946624
0.11866
0.0984578
0.11627
0.0968568
0.114173
0.0914502
0.112956
0.0868192
0.0828219
0.112259
0.0840003
3.05452e-10
0.0840003
1.83921e-09
0.0840003
6.61414e-09
0.0840003
1.79699e-08
0.0840003
4.87479e-08
0.0840005
1.18831e-07
0.0840002
3.02255e-07
0.0840015
7.27596e-07
0.0839993
1.80666e-06
0.0840089
4.38702e-06
0.0839934
1.07487e-05
0.084052
2.63863e-05
0.0839737
6.44196e-05
0.0842412
0.000160486
0.0840877
0.000400189
0.0849867
0.00105398
0.0863234
0.00300044
0.0935503
0.00985953
0.119224
0.0354676
0.123017
0.0908411
0.122934
0.0985482
0.120921
0.0988751
0.117466
0.0949116
0.115736
0.0885482
0.0839845
0.114565
0.0840003
2.23605e-10
0.0840003
1.31159e-09
0.0840003
4.75229e-09
0.0840003
1.27998e-08
0.0840004
3.50117e-08
0.0840004
8.38838e-08
0.0840005
2.18388e-07
0.0840008
5.07787e-07
0.0840005
1.30945e-06
0.0840045
3.04346e-06
0.0839988
7.75293e-06
0.0840298
1.82514e-05
0.0839926
4.59548e-05
0.0841614
0.000110678
0.084068
0.000278561
0.0847125
0.000706032
0.0854381
0.00193642
0.0896394
0.00593542
0.103726
0.0211708
0.123182
0.0713372
0.124903
0.0968253
0.124061
0.0997175
0.120447
0.0985322
0.118652
0.090346
0.0856196
0.117011
0.0840003
1.48908e-10
0.0840003
9.65056e-10
0.0840003
3.24268e-09
0.0840003
9.41508e-09
0.0840004
2.4084e-08
0.0840003
6.13362e-08
0.0840006
1.51082e-07
0.0840001
3.70098e-07
0.0840021
9.13505e-07
0.0839995
2.20101e-06
0.0840098
5.48359e-06
0.0839977
1.30997e-05
0.0840457
3.2913e-05
0.0840094
7.87213e-05
0.0842027
0.000199799
0.0842376
0.000494249
0.0850561
0.00132242
0.0869769
0.00382251
0.0951859
0.0130283
0.12148
0.0449008
0.126451
0.09183
0.127083
0.0990894
0.126381
0.0992376
0.122027
0.0947062
0.0880822
0.119564
0.0840003
9.8836e-11
0.0840003
6.76134e-10
0.0840003
2.20372e-09
0.0840003
6.59807e-09
0.0840003
1.62931e-08
0.0840003
4.31548e-08
0.0840005
1.01276e-07
0.0840003
2.60239e-07
0.0840013
6.0969e-07
0.0839999
1.53586e-06
0.0840074
3.6579e-06
0.083997
9.00579e-06
0.0840442
2.1933e-05
0.0839892
5.31681e-05
0.0842239
0.000132151
0.0841049
0.000323764
0.0849738
0.000836296
0.0861192
0.00228371
0.0922805
0.00709393
0.112465
0.0245996
0.128454
0.07576
0.129307
0.0982279
0.128646
0.0998961
0.124845
0.098508
0.0904264
0.122502
0.0840003
7.14975e-11
0.0840003
4.48702e-10
0.0840003
1.55787e-09
0.0840003
4.37863e-09
0.0840003
1.14922e-08
0.0840004
2.871e-08
0.0840003
7.12766e-08
0.0840007
1.74366e-07
0.0840003
4.25293e-07
0.0840019
1.04223e-06
0.0840011
2.5177e-06
0.0840061
6.20912e-06
0.084011
1.49343e-05
0.0840229
3.70007e-05
0.0840781
8.95272e-05
0.0841456
0.000223714
0.084465
0.00055909
0.0852132
0.00148653
0.0880114
0.00433293
0.0977103
0.0148392
0.12472
0.0486372
0.130405
0.0925206
0.131375
0.0989237
0.130365
0.0995173
0.0946085
0.126189
0.0840003
4.71338e-11
0.0840003
3.00521e-10
0.0840003
1.03781e-09
0.0840003
2.93138e-09
0.0840003
7.6396e-09
0.0840004
1.9231e-08
0.0840003
4.70208e-08
0.0840005
1.16505e-07
0.0840003
2.7882e-07
0.0840014
6.91992e-07
0.0840009
1.64145e-06
0.0840049
4.09727e-06
0.0840082
9.64314e-06
0.0840186
2.42221e-05
0.0840605
5.71038e-05
0.0841105
0.000143738
0.0843692
0.000348874
0.0848953
0.000901075
0.0868188
0.00245269
0.093969
0.00763203
0.116941
0.0256441
0.132505
0.0768811
0.133061
0.0983574
0.13331
0.0992597
0.0981248
0.129783
0.0840003
3.32763e-11
0.0840003
1.92496e-10
0.0840003
7.13726e-10
0.0840003
1.87544e-09
0.0840003
5.23523e-09
0.0840003
1.23193e-08
0.0840003
3.22258e-08
0.0840005
7.49034e-08
0.0840003
1.90096e-07
0.0840012
4.48702e-07
0.0840001
1.11134e-06
0.0840054
2.68189e-06
0.0840003
6.48008e-06
0.0840269
1.60364e-05
0.0840077
3.79945e-05
0.0841249
9.61151e-05
0.0841276
0.000228504
0.0846031
0.000589811
0.0853157
0.00152606
0.088632
0.00448273
0.0990296
0.015118
0.127535
0.0482789
0.134233
0.0916296
0.135424
0.0980599
0.0994995
0.13404
0.0840003
1.9926e-11
0.0840003
1.3026e-10
0.0840003
4.38694e-10
0.0840003
1.27077e-09
0.0840003
3.2366e-09
0.0840003
8.26901e-09
0.0840004
1.99716e-08
0.0840003
4.97058e-08
0.0840006
1.18957e-07
0.0840004
2.92577e-07
0.0840015
7.01911e-07
0.084001
1.71326e-06
0.0840056
4.14253e-06
0.0840088
1.00001e-05
0.0840214
2.44793e-05
0.0840649
5.8706e-05
0.0841245
0.00014545
0.0843938
0.000355083
0.0849725
0.000909372
0.0870079
0.00246456
0.0944866
0.00759898
0.117736
0.0250044
0.135355
0.0739171
0.136203
0.0971912
0.0981426
0.137543
0.0840003
1.3333e-11
0.0840003
8.39249e-11
0.0840003
2.88053e-10
0.0840003
8.17529e-10
0.0840003
2.11958e-09
0.0840003
5.29434e-09
0.0840004
1.31645e-08
0.0840003
3.15495e-08
0.0840004
7.86109e-08
0.0840004
1.84976e-07
0.0840008
4.64467e-07
0.0840013
1.08283e-06
0.0840022
2.72771e-06
0.0840086
6.36442e-06
0.084006
1.59834e-05
0.0840569
3.76054e-05
0.0840362
9.40623e-05
0.0843026
0.000226366
0.0844237
0.000572001
0.0856579
0.0014836
0.0886995
0.00428341
0.0996586
0.0141767
0.129015
0.0443871
0.137483
0.0886767
0.0968379
0.138777
0.0840003
7.9121e-12
0.0840003
5.43828e-11
0.0840003
1.77242e-10
0.0840003
5.30098e-10
0.0840003
1.30425e-09
0.0840003
3.45025e-09
0.0840003
8.01091e-09
0.0840003
2.06899e-08
0.0840004
4.75236e-08
0.0840003
1.2104e-07
0.0840009
2.80538e-07
0.0840003
7.03898e-07
0.0840037
1.65494e-06
0.0840009
4.07754e-06
0.084019
9.78842e-06
0.0840073
2.36566e-05
0.0840961
5.79431e-05
0.0840809
0.000138943
0.0844742
0.000348437
0.0848384
0.00086757
0.0870183
0.00235592
0.0938979
0.00711911
0.115134
0.0231447
0.136836
0.0668954
0.0951362
0.138509
0.0840003
5.38924e-12
0.0840003
3.25502e-11
0.0840003
1.16669e-10
0.0840003
3.1734e-10
0.0840003
8.55847e-10
0.0840003
2.0674e-09
0.0840003
5.24531e-09
0.0840003
1.24254e-08
0.0840003
3.07741e-08
0.0840005
7.35002e-08
0.0840003
1.79022e-07
0.0840012
4.31994e-07
0.0840005
1.03932e-06
0.0840051
2.53721e-06
0.0840023
6.04006e-06
0.0840251
1.48663e-05
0.0840189
3.52379e-05
0.0841216
8.74887e-05
0.0841705
0.000209028
0.084643
0.000527873
0.085458
0.00134562
0.0889309
0.00381337
0.0996924
0.0122326
0.128898
0.0375556
0.0840351
0.13994
0.0840003
3.31224e-12
0.0840003
2.02142e-11
0.0840003
7.15366e-11
0.0840003
1.97225e-10
0.0840003
5.23294e-10
0.0840003
1.28278e-09
0.0840003
3.22162e-09
0.0840003
7.64046e-09
0.0840003
1.90741e-08
0.0840004
4.47175e-08
0.0840004
1.11553e-07
0.0840007
2.61568e-07
0.0840006
6.49019e-07
0.0840032
1.53279e-06
0.084001
3.76477e-06
0.0840185
8.99758e-06
0.0840039
2.18916e-05
0.0841039
5.29459e-05
0.0840487
0.000128527
0.084501
0.000316887
0.0846961
0.000790741
0.0867762
0.00210447
0.0924951
0.00622952
0.110007
0.0200751
0.0575395
0.136365
0.0840003
1.93346e-12
0.0840003
1.2492e-11
0.0840003
4.22046e-11
0.0840003
1.217e-10
0.0840003
3.10296e-10
0.0840003
7.84716e-10
0.0840003
1.91019e-09
0.0840003
4.65496e-09
0.0840004
1.12941e-08
0.0840003
2.70787e-08
0.0840005
6.59724e-08
0.0840004
1.56872e-07
0.0840009
3.84379e-07
0.0840012
9.07219e-07
0.0840027
2.23242e-06
0.0840078
5.25707e-06
0.0840095
1.29247e-05
0.0840526
3.05913e-05
0.0840504
7.4937e-05
0.0843059
0.000180161
0.0844343
0.00044573
0.0857003
0.00112644
0.0885016
0.00309076
0.0992021
0.00955151
0.028714
0.127809
0.0840003
1.12137e-12
0.0840003
7.64213e-12
0.0840003
2.50589e-11
0.0840003
7.43526e-11
0.0840003
1.83876e-10
0.0840003
4.80687e-10
0.0840003
1.12525e-09
0.0840003
2.85901e-09
0.0840003
6.63054e-09
0.0840003
1.65738e-08
0.0840004
3.88833e-08
0.0840004
9.54606e-08
0.0840008
2.27445e-07
0.0840005
5.47796e-07
0.0840028
1.33243e-06
0.0840023
3.14421e-06
0.0840113
7.78939e-06
0.0840187
1.80909e-05
0.0840483
4.55604e-05
0.0841292
0.000105403
0.0842763
0.000268308
0.0848029
0.000644608
0.0861044
0.00171311
0.0908534
0.00487637
0.0156755
0.103774
0.0840003
6.98584e-13
0.0840003
4.34656e-12
0.0840003
1.52349e-11
0.0840003
4.23541e-11
0.0840003
1.11507e-10
0.0840003
2.75004e-10
0.0840003
6.78805e-10
0.0840003
1.63633e-09
0.0840003
3.96928e-09
0.0840003
9.55721e-09
0.0840003
2.29429e-08
0.0840004
5.54557e-08
0.0840004
1.32455e-07
0.0840008
3.21466e-07
0.0840012
7.63823e-07
0.0840023
1.8584e-06
0.084007
4.41334e-06
0.084008
1.07442e-05
0.0840457
2.55378e-05
0.0840419
6.22908e-05
0.0842627
0.000149484
0.084346
0.000368313
0.0854062
0.000919688
0.0875115
0.00246214
0.00735416
0.0960256
0.0840003
4.20372e-13
0.0840003
2.46044e-12
0.0840003
9.02887e-12
0.0840003
2.39757e-11
0.0840003
6.57323e-11
0.0840003
1.55516e-10
0.0840003
3.9871e-10
0.0840003
9.26687e-10
0.0840003
2.31395e-09
0.0840003
5.41635e-09
0.0840003
1.32579e-08
0.0840004
3.15661e-08
0.0840004
7.55996e-08
0.0840007
1.83678e-07
0.0840008
4.30118e-07
0.0840017
1.0686e-06
0.0840038
2.45267e-06
0.0840059
6.17134e-06
0.0840257
1.40778e-05
0.0840257
3.55497e-05
0.0841592
8.15328e-05
0.0841744
0.000206128
0.0848496
0.000490124
0.0856783
0.00127657
0.00349954
0.089873
0.0840003
2.12793e-13
0.0840003
1.47303e-12
0.0840003
4.75235e-12
0.0840003
1.42937e-11
0.0840003
3.48936e-11
0.0840003
9.13878e-11
0.0840003
2.13093e-10
0.0840003
5.35274e-10
0.0840003
1.24814e-09
0.0840003
3.0624e-09
0.0840003
7.24967e-09
0.0840003
1.738e-08
0.0840004
4.19434e-08
0.0840004
9.82961e-08
0.0840006
2.42468e-07
0.0840012
5.55111e-07
0.0840016
1.39254e-06
0.0840069
3.15109e-06
0.0840055
7.94054e-06
0.084042
1.79608e-05
0.0840303
4.51372e-05
0.0842393
0.000103449
0.0842488
0.000259262
0.0852271
0.000622839
0.00164998
0.0866032
0.0840003
1.23966e-13
0.0840003
7.45753e-13
0.0840003
2.67911e-12
0.0840003
7.23835e-12
0.0840003
1.93689e-11
0.0840003
4.66225e-11
0.0840003
1.15473e-10
0.0840003
2.74746e-10
0.0840003
6.56936e-10
0.0840003
1.57754e-09
0.0840003
3.68429e-09
0.0840004
8.96678e-09
0.0840003
2.05886e-08
0.0840004
5.04724e-08
0.0840005
1.14372e-07
0.0840008
2.82637e-07
0.0840016
6.33373e-07
0.0840022
1.561e-06
0.0840095
3.49907e-06
0.0840078
8.52399e-06
0.084059
1.92378e-05
0.0840461
4.60795e-05
0.084323
0.000106064
0.0844219
0.000254264
0.000619463
0.0856829
0.0840003
6.28571e-14
0.0840003
3.6951e-13
0.0840003
1.35776e-12
0.0840003
3.58038e-12
0.0840003
9.77542e-12
0.0840003
2.26194e-11
0.0840003
5.82878e-11
0.0840003
1.29026e-10
0.0840003
3.28025e-10
0.0840003
7.18004e-10
0.0840003
1.79889e-09
0.0840003
3.96514e-09
0.0840003
9.64119e-09
0.0840004
2.18579e-08
0.0840003
5.06806e-08
0.0840008
1.19027e-07
0.0840003
2.6138e-07
0.084003
6.38209e-07
0.0840006
1.32154e-06
0.0840129
3.33266e-06
0.0840069
6.50979e-06
0.0840532
1.68715e-05
0.0840635
3.16546e-05
0.0842483
8.0884e-05
0.000163868
0.0844764
0.0840003
2.71421e-14
0.0840003
1.87596e-13
0.0840003
6.02275e-13
0.0840003
1.80278e-12
0.0840003
4.31071e-12
0.0840003
1.13004e-11
0.0840003
2.49667e-11
0.0840003
6.37425e-11
0.0840003
1.36422e-10
0.0840003
3.45673e-10
0.0840003
7.24362e-10
0.0840003
1.82396e-09
0.0840003
3.82082e-09
0.0840003
9.26104e-09
0.0840003
2.00896e-08
0.0840005
4.55507e-08
0.0840001
1.03587e-07
0.0840017
2.17329e-07
0.083998
5.18847e-07
0.0840096
1.00451e-06
0.0839832
2.49934e-06
0.0840527
4.38589e-06
0.0839121
1.13845e-05
0.0841577
1.88488e-05
4.51788e-05
0.0838278
0.0840003
1.034e-14
0.0840003
9.40988e-14
0.0840003
2.43931e-13
0.0840003
9.20353e-13
0.0840003
1.77115e-12
0.0840003
5.5028e-12
0.0840003
1.0632e-11
0.0840003
2.93086e-11
0.0840003
6.10416e-11
0.0840003
1.46031e-10
0.0840003
3.45827e-10
0.0840003
7.01084e-10
0.0840003
1.90686e-09
0.0840004
3.22772e-09
0.0840002
1.02819e-08
0.0840005
1.41431e-08
0.0839997
5.37433e-08
0.0840019
5.51705e-08
0.0839962
2.75119e-07
0.0840094
1.86166e-07
0.0839762
1.31399e-06
0.0840425
5.6279e-07
0.0838855
5.09041e-06
0.0840843
1.76876e-06
1.10554e-05
0.0836781
0.0840003
1.09147e-14
0.0840003
2.97698e-14
0.0840003
1.8938e-13
0.0840003
2.6846e-13
0.0840003
1.36427e-12
0.0840003
1.49167e-12
0.0840003
8.11923e-12
0.0840003
7.63651e-12
0.0840003
4.38693e-11
0.0840003
4.14115e-11
0.0840003
2.27449e-10
0.0840003
2.38959e-10
0.0840003
1.11313e-09
0.0840004
1.50265e-09
0.0840003
4.89097e-09
0.0840004
9.65207e-09
0.084
1.90586e-08
0.0840001
6.48328e-08
0.0839996
4.94036e-08
0.083996
4.27311e-07
0.0839996
-8.16827e-08
0.083972
2.35464e-06
0.0839842
-1.19214e-06
0.0838838
8.00629e-06
-3.02903e-06
0.0838
0.0840003
3.41133e-15
0.0840003
1.95371e-14
0.0840003
7.88848e-14
0.0840003
1.92121e-13
0.0840003
5.34071e-13
0.0840003
1.4027e-12
0.0840003
2.8165e-12
0.0840003
9.17623e-12
0.0840003
1.50345e-11
0.0840003
5.70248e-11
0.0840003
7.69987e-11
0.0840003
3.52131e-10
0.0840003
2.74191e-10
0.0840003
2.11119e-09
0.0840004
7.59195e-10
0.0840001
1.16179e-08
0.0840005
2.81385e-09
0.0839994
5.88477e-08
0.0839999
2.63972e-08
0.0839976
2.61542e-07
0.0839903
2.04645e-07
0.0839899
1.16051e-06
0.0839464
1.06362e-06
0.0839132
4.73549e-06
7.24708e-06
0.0837596
0.0840003
2.21568e-15
0.0840003
1.93157e-14
0.0840003
2.96495e-14
0.0840003
1.84144e-13
0.0840003
2.65823e-13
0.0840003
9.39301e-13
0.0840003
2.3167e-12
0.0840003
4.15381e-12
0.0840003
1.79458e-11
0.0840003
2.01522e-11
0.0840003
1.2407e-10
0.0840003
8.15951e-11
0.0840003
8.26212e-10
0.0840003
2.47531e-10
0.0840003
5.15831e-09
0.0840004
-2.13621e-11
0.0839998
2.96928e-08
0.0840009
-1.40177e-09
0.0839964
1.58021e-07
0.0840051
2.89208e-08
0.0839757
7.80076e-07
0.0840253
4.40049e-07
0.0838804
3.32711e-06
0.0840147
3.59047e-06
1.24074e-05
0.0836329
0.0840003
1.35937e-15
0.0840003
8.11504e-15
0.0840003
2.66948e-14
0.0840003
8.13735e-14
0.0840003
1.78088e-13
0.0840003
5.41352e-13
0.0840003
1.16855e-12
0.0840003
3.11548e-12
0.0840003
7.48631e-12
0.0840003
1.88134e-11
0.0840003
4.7354e-11
0.0840003
1.12384e-10
0.0840003
2.97345e-10
0.0840003
6.90211e-10
0.0840004
1.81768e-09
0.084
4.20871e-09
0.0840007
1.11556e-08
0.0839987
2.44218e-08
0.0840024
6.18759e-08
0.0839917
1.40801e-07
0.0840068
3.49502e-07
0.0839566
7.11998e-07
0.0840083
1.93362e-06
0.0838154
3.6528e-06
1.02378e-05
0.0838536
0.0840003
6.9042e-16
0.0840003
-3.2396e-16
0.0840003
2.34936e-14
0.0840003
-6.31591e-15
0.0840003
1.71306e-13
0.0840003
1.27361e-14
0.0840003
8.35785e-13
0.0840003
7.81702e-13
0.0840003
3.72595e-12
0.0840003
8.19948e-12
0.0840003
1.71221e-11
0.0840003
6.72778e-11
0.0840003
9.6824e-11
0.0840003
4.68643e-10
0.0840004
5.86166e-10
0.084
3.42526e-09
0.0840007
3.64691e-09
0.0839987
2.11281e-08
0.0840025
2.11774e-08
0.0839911
1.18672e-07
0.0840087
7.50313e-08
0.0839515
6.65954e-07
0.0840166
5.84535e-07
0.0837998
2.90315e-06
4.77584e-06
0.0838631
0.0840003
0.0840003
0.0840003
0.0840003
0.0840003
0.0840003
0.0840003
0.0840003
0.0840003
0.0840003
0.0840003
0.0840003
0.0840003
0.0840003
0.0840004
0.0840001
0.0840007
0.0839989
0.0840017
0.0839929
0.0840013
0.083966
0.083983
0.0838452
0.0838047
0.0442788
0.0419396
0.0240659
0.0201247
0.0119448
0.0119065
-0.00531592
0.0171329
-0.0128288
0.00743861
-0.0185803
0.00566951
-0.0222544
0.00358495
-0.0238367
0.00149717
-0.0247944
0.000890142
-0.0262705
0.00141982
-0.0279131
0.00159148
-0.0293561
0.0013913
-0.0305043
0.00110118
-0.0315186
0.000975648
-0.0325166
0.000965293
-0.0334719
0.000926209
-0.0343613
0.000860123
-0.0351431
0.000751374
-0.0357526
0.00057863
-0.0361462
0.000366986
-0.0364182
0.000243492
-0.0368736
0.000398313
-0.0373803
0.000437195
-0.0378005
0.000349559
-0.0381074
0.000210989
-0.038236
-2.12423e-05
-0.0380199
-0.000391358
-0.0373446
-0.000879407
-0.0361844
-0.00137165
-0.0346359
-0.00176286
-0.0327812
-0.00206115
-0.030704
-0.00227622
-0.028447
-0.00244572
-0.0260687
-0.00255328
-0.0236297
-0.00260135
-0.0211709
-0.00260331
-0.0186904
-0.00261751
-0.0162018
-0.00261061
-0.0136742
-0.00263912
-0.0111322
-0.00264119
-0.00862268
-0.00260072
-0.00613125
-0.00256877
-0.00365484
-0.0025455
-0.00114341
-0.00256842
0.00131423
-0.00250565
0.00363149
-0.00235462
0.00584233
-0.00223909
0.0079697
-0.00214499
0.0100156
-0.00205505
0.0119847
-0.00196813
0.0138734
-0.00187849
0.0156796
-0.00179032
0.0174267
-0.00172478
0.0191458
-0.00168285
0.02081
-0.00162214
0.022407
-0.00154898
0.023941
-0.00147864
0.0254062
-0.00140898
0.0268135
-0.00134633
0.0281638
-0.00128654
0.0294587
-0.00123026
0.0306993
-0.00117558
0.03189
-0.00112413
0.0330301
-0.00107439
0.0341206
-0.00102699
0.0351643
-0.000981155
0.0361629
-0.000937607
0.0371163
-0.000895249
0.0380256
-0.000854804
0.0388927
-0.000815366
0.0397194
-0.000777647
0.0405058
-0.000740685
0.0412538
-0.000705141
0.041964
-0.000670201
0.0426394
-0.000636447
0.0432796
-0.000603221
0.0438859
-0.0005709
0.0444583
-0.00053904
0.0449987
-0.000507917
0.0455074
-0.000477248
0.0459857
-0.000447243
0.0464331
-0.000417759
0.046851
-0.000388938
0.0472399
-0.000360742
0.0476012
-0.000333197
0.0479357
-0.000306275
0.0482438
-0.000279931
0.0485259
-0.000254128
0.0487826
-0.000228723
0.0490142
-0.000203635
0.0492214
-0.000178557
0.0494032
-0.000153338
0.0495594
-0.000127383
0.0496886
-0.000100353
0.0497889
-7.11265e-05
0.049857
-3.89998e-05
0.0498904
-3.57038e-06
0.0498844
3.59231e-05
0.0498308
8.38011e-05
0.000140286
0.060739
0.0623367
0.044924
0.0358293
0.0335848
0.0231028
0.0279118
0.0226959
0.0180238
0.017305
0.0110098
0.0126415
0.00448255
0.0100386
-0.00224528
0.00815083
-0.0080126
0.00659993
-0.0121772
0.00554184
-0.0150211
0.00439669
-0.0170051
0.00334002
-0.0183178
0.00238197
-0.0194523
0.00209399
-0.0207682
0.00226914
-0.0220945
0.00224872
-0.0233075
0.00207514
-0.0243708
0.00181615
-0.0252589
0.00146629
-0.0259856
0.00109421
-0.026562
0.000819642
-0.0270054
0.000822742
-0.0274666
0.0008663
-0.0277445
0.000590765
-0.0277361
0.000130551
-0.0273844
-0.000482606
-0.0265955
-0.00131759
-0.0252685
-0.00239013
-0.0234509
-0.00336763
-0.0213404
-0.00407578
-0.0189956
-0.00459263
-0.0165208
-0.00493676
-0.0139406
-0.00519896
-0.0113189
-0.00533831
-0.00871156
-0.005358
-0.00610476
-0.00534455
-0.00350036
-0.00533989
-0.000834472
-0.0053795
0.00176117
-0.00532882
0.00422853
-0.00518815
0.0066533
-0.00509013
0.00901733
-0.00498855
0.0113122
-0.0048884
0.0134913
-0.00478445
0.015619
-0.00465913