/*--------------------------------*- C++ -*----------------------------------*\
  =========                 |
  \\      /  F ield         | OpenFOAM: The Open Source CFD Toolbox
   \\    /   O peration     | Website:  https://openfoam.org
    \\  /    A nd           | Version:  13
     \\/     M anipulation  |
\*---------------------------------------------------------------------------*/
FoamFile
{
    format      ascii;
    class       volScalarField;
    location    "6.5";
    object      T;
}
// * * * * * * * * * * * * * * * * * * * * * * * * * * * * * * * * * * * * * //

dimensions      [0 0 0 1 0 0 0];

internalField   nonuniform List<scalar> 
5250
(
1.00001
1.00002
1.00004
1.00013
1.00028
1.00079
1.00167
1.00479
1.01049
1.02856
1.0695
1.18735
1.50042
2.21374
2.67742
2.75209
2.74094
2.73926
2.75052
2.76692
2.77975
2.78836
2.79562
2.80021
2.80048
1.00001
1.00002
1.00005
1.00011
1.00032
1.00066
1.00194
1.00409
1.01152
1.02639
1.07063
1.18272
1.49435
2.20127
2.67333
2.75195
2.74038
2.73839
2.74963
2.76594
2.77868
2.78723
2.79446
2.79897
2.79913
1.00001
1.00002
1.00005
1.00011
1.00028
1.00071
1.00169
1.00442
1.01032
1.02698
1.06678
1.17853
1.478
2.17424
2.66344
2.75106
2.73849
2.73569
2.7469
2.76279
2.77555
2.78423
2.79146
2.79553
2.79549
1
1.00002
1.00004
1.00011
1.00027
1.00067
1.00164
1.00416
1.00993
1.02561
1.06374
1.1696
1.45455
2.13045
2.64767
2.74949
2.7353
2.73107
2.74188
2.75812
2.76986
2.77782
2.78506
2.79076
2.79095
1
1.00001
1.00004
1.0001
1.00026
1.00062
1.00157
1.00383
1.00944
1.02372
1.05985
1.15765
1.42346
2.06899
2.6252
2.7468
2.73039
2.72453
2.73515
2.75103
2.76354
2.77158
2.77757
2.78075
2.78145
1
1.00001
1.00004
1.00009
1.00025
1.00054
1.00152
1.00327
1.00923
1.02074
1.05597
1.14217
1.38594
1.98748
2.59471
2.74175
2.72309
2.71485
2.72538
2.74046
2.75268
2.76106
2.76759
2.77086
2.77029
1
1.00001
1.00003
1.00009
1.00021
1.00054
1.00123
1.00332
1.00748
1.02007
1.04811
1.12835
1.34076
1.88875
2.55403
2.73226
2.7121
2.7022
2.71271
2.7279
2.73964
2.74667
2.75231
2.7547
2.75342
1
1.00001
1.00003
1.00008
1.00019
1.00046
1.00116
1.00273
1.00712
1.01673
1.04364
1.11025
1.2959
1.77366
2.50183
2.71471
2.6941
2.68414
2.69502
2.71026
2.72237
2.72877
2.73291
2.73305
2.72793
1
1.00001
1.00003
1.00006
1.00018
1.0004
1.00104
1.00249
1.00617
1.01537
1.03827
1.0987
1.26206
1.69509
2.45207
2.69993
2.67963
2.66963
2.67717
2.68991
2.70078
2.70453
2.70611
2.70048
2.68461
1
1.00001
1.00002
1.00007
1.00014
1.00039
1.00086
1.00232
1.00537
1.0139
1.03381
1.08798
1.23211
1.62018
2.37431
2.67038
2.66833
2.66057
2.66092
2.66928
2.67627
2.6769
2.67045
2.65049
2.59181
1
1.00001
1.00002
1.00005
1.00014
1.0003
1.00086
1.00187
1.00507
1.01172
1.03061
1.07628
1.20383
1.54413
2.27132
2.63024
2.66067
2.65177
2.64627
2.64819
2.64984
2.64437
2.62536
2.57795
2.46835
1
1.00001
1.00002
1.00004
1.00013
1.00026
1.00076
1.00156
1.00452
1.00992
1.02682
1.06524
1.17507
1.46686
2.14245
2.57741
2.65172
2.64164
2.63227
2.62851
2.62358
2.60987
2.57893
2.51449
2.39202
1
1.00001
1.00002
1.00004
1.0001
1.00024
1.00059
1.00141
1.00367
1.00852
1.02245
1.05458
1.14543
1.3869
1.98416
2.50834
2.63609
2.6268
2.61494
2.60715
2.59717
2.57701
2.53665
2.47093
2.36483
1
1
1.00001
1.00003
1.00009
1.00018
1.00053
1.00109
1.00309
1.00685
1.01827
1.04392
1.11583
1.30563
1.79627
2.41964
2.60716
2.6032
2.59313
2.58252
2.56935
2.54719
2.5055
2.4428
2.35415
1
1
1.00001
1.00003
1.00006
1.00017
1.00037
1.00099
1.00228
1.00582
1.0141
1.03546
1.09014
1.23769
1.62484
2.31418
2.56772
2.57558
2.56713
2.55567
2.54055
2.51812
2.47862
2.42268
2.34619
1
1
1.00001
1.00002
1.00005
1.00014
1.00028
1.00084
1.00173
1.00496
1.0109
1.02933
1.07141
1.1909
1.50442
2.17894
2.51466
2.55354
2.54407
2.53281
2.515
2.49225
2.45539
2.40448
2.33866
1
1
1.00001
1.00002
1.00004
1.00011
1.00023
1.00066
1.00137
1.00398
1.00857
1.02344
1.05601
1.14972
1.39569
1.98949
2.43425
2.53145
2.52415
2.51231
2.49274
2.46883
2.43528
2.38922
2.33152
1
1
1.00001
1.00001
1.00004
1.00007
1.00021
1.00044
1.00121
1.00275
1.00713
1.01708
1.04351
1.11094
1.29418
1.76254
2.32669
2.49717
2.50126
2.49103
2.47104
2.44637
2.41528
2.37451
2.32372
1
1
1
1.00001
1.00002
1.00006
1.00013
1.00039
1.0008
1.0023
1.00492
1.0134
1.03121
1.08198
1.21088
1.55557
2.19028
2.44685
2.47308
2.46522
2.44794
2.4242
2.39605
2.35999
2.31547
1
1
1
1.00001
1.00002
1.00004
1.00011
1.00027
1.00065
1.00164
1.00384
1.01001
1.02354
1.06132
1.15669
1.41699
2.00673
2.37451
2.44642
2.44138
2.42625
2.40377
2.37749
2.34552
2.30637
1
1
1
1.00001
1.00001
1.00003
1.00008
1.00019
1.00052
1.0011
1.00313
1.0067
1.01839
1.043
1.11417
1.29698
1.76675
2.26436
2.40985
2.41684
2.4064
2.3857
2.35913
2.3302
2.29544
1
1
1
1
1.00001
1.00003
1.00005
1.00016
1.00032
1.00091
1.00194
1.0053
1.01202
1.03134
1.07686
1.20169
1.52565
2.1129
2.35332
2.38789
2.38245
2.36555
2.34106
2.31448
2.28396
1
1
1
1
1.00001
1.00002
1.00004
1.00009
1.00027
1.00056
1.00159
1.00341
1.00926
1.02132
1.05569
1.14065
1.37207
1.90721
2.27166
2.35706
2.35824
2.34588
2.32369
2.29809
2.27094
1
1
1
1
1
1.00001
1.00003
1.00007
1.00018
1.00041
1.00108
1.00238
1.00646
1.01445
1.03839
1.09361
1.24741
1.63676
2.14409
2.31277
2.33153
2.32403
2.30563
2.28105
2.25625
1
1
1
1
1
1.00001
1.00002
1.00005
1.00012
1.00029
1.00071
1.00171
1.00429
1.0101
1.02582
1.06295
1.16418
1.42655
1.96859
2.24811
2.30243
2.30043
2.28671
2.26436
2.24045
1
1
1
1
1
1.00001
1.00001
1.00004
1.00008
1.00021
1.00044
1.00128
1.00264
1.00744
1.01649
1.04374
1.10766
1.28392
1.71732
2.13912
2.26441
2.27609
2.26794
2.2492
2.22518
1
1
1
1
1
1
1.00001
1.00002
1.00005
1.00013
1.00031
1.00081
1.00179
1.00486
1.0107
1.02857
1.06785
1.17797
1.46033
1.97352
2.2025
2.2457
2.24464
2.23095
2.21099
1
1
1
1
1
1
1.00001
1.00001
1.00004
1.00008
1.00023
1.00048
1.00132
1.0029
1.00763
1.01783
1.04547
1.11384
1.29687
1.73546
2.10351
2.21029
2.22157
2.21462
2.19813
1
1
1
1
1
1
1
1.00001
1.00003
1.00005
1.00015
1.00031
1.00085
1.00185
1.00486
1.01124
1.02846
1.06967
1.17894
1.46285
1.9448
2.1527
2.19208
2.1929
2.18129
1
1
1
1
1
1
1
1.00001
1.00002
1.00003
1.00009
1.0002
1.00056
1.00114
1.00327
1.00693
1.01875
1.04359
1.11375
1.2905
1.71495
2.05942
2.15922
2.17137
2.16571
1
1
1
1
1
1
1
1
1.00001
1.00002
1.00005
1.00014
1.0003
1.00083
1.00179
1.00474
1.01083
1.02755
1.06691
1.1715
1.44194
1.89944
2.10199
2.1421
2.1447
1
1
1
1
1
1
1
1
1.00001
1.00002
1.00003
1.00009
1.00019
1.0005
1.00117
1.00285
1.00703
1.01676
1.04203
1.10452
1.2703
1.66281
2.00522
2.10953
2.12388
1
1
1
1
1
1
1
1
1
1.00001
1.00002
1.00005
1.00012
1.00032
1.00067
1.00188
1.0039
1.01081
1.02396
1.06291
1.15444
1.40251
1.83716
2.04662
2.09283
1
1
1
1
1
1
1
1
1
1.00001
1.00001
1.00003
1.00008
1.00017
1.00047
1.00097
1.00274
1.00581
1.01559
1.03584
1.09261
1.23279
1.58047
1.93447
2.05586
1
1
1
1
1
1
1
1
1
1
1.00001
1.00002
1.00004
1.00011
1.00027
1.00061
1.00159
1.00349
1.0093
1.02081
1.05422
1.13226
1.34393
1.75003
1.98367
1
1
1
1
1
1
1
1
1
1
1
1.00001
1.00002
1.00007
1.00015
1.00038
1.00087
1.00214
1.00515
1.01226
1.03038
1.07381
1.18738
1.47028
1.8495
1
1
1
1
1
1
1
1
1
1
1
1.00001
1.00001
1.00004
1.00008
1.00024
1.00048
1.00134
1.00288
1.00754
1.01734
1.0438
1.10754
1.2762
1.64437
1
1
1
1
1
1
1
1
1
1
1
1
1.00001
1.00002
1.00006
1.00012
1.00031
1.00071
1.00175
1.0042
1.00996
1.02467
1.05948
1.15001
1.3814
1
1
1
1
1
1
1
1
1
1
1
1
1.00001
1.00001
1.00003
1.00007
1.00018
1.00041
1.00102
1.00242
1.00576
1.01425
1.03367
1.08473
1.21166
1
1
1
1
1
1
1
1
1
1
1
1
1
1.00001
1.00002
1.00005
1.0001
1.00025
1.0006
1.00142
1.00354
1.00809
1.02071
1.04835
1.1237
1
1
1
1
1
1
1
1
1
1
1
1
1
1
1.00001
1.00003
1.00007
1.00015
1.00039
1.00092
1.00221
1.00547
1.01282
1.03237
1.07862
1
1
1
1
1
1
1
1
1
1
1
1
1
1
1.00001
1.00002
1.00005
1.00011
1.00032
1.00065
1.00186
1.00401
1.01091
1.02539
1.06667
1
1
1
1
1
1
1
1
1
1
1
1
1
1
1.00001
1.00002
1.00004
1.00011
1.00026
1.00063
1.00164
1.00382
1.01026
1.02427
1.0648
1
1
1
1
1
1
1
1
1
1
1
1
1
1
1.00001
1.00002
1.00004
1.0001
1.00026
1.00058
1.00166
1.00361
1.01027
1.02366
1.06451
1
1
1
1
1
1
1
1
1
1
1
1
1
1
1.00001
1.00001
1.00004
1.00009
1.00026
1.00059
1.0016
1.00377
1.00988
1.02435
1.06408
1
1
1
1
1
1
1
1
1
1
1
1
1
1
1.00001
1.00002
1.00004
1.00011
1.00023
1.00066
1.00146
1.004
1.00946
1.02501
1.06334
1
1
1
1
1
1
1
1
1
1
1
1
1
1
1.00001
1.00002
1.00004
1.0001
1.00025
1.0006
1.00157
1.00373
1.00994
1.02414
1.06417
1
1
1
1
1
1
1
1
1
1
1
1
1
1
1.00001
1.00002
1.00004
1.00011
1.00022
1.00067
1.00137
1.00412
1.00907
1.02529
1.06244
1
1
1
1
1
1
1
1
1
1
1
1
1
1
1.00001
1.00002
1.00004
1.0001
1.00022
1.00066
1.00136
1.00411
1.00901
1.02522
1.0622
1
1
1
1
1
1
1
1
1
1
1
1
1
1
1.00001
1.00002
1.00003
1.00011
1.00021
1.00066
1.00138
1.00403
1.00914
1.02493
1.06237
2.2992
2.32404
2.63267
2.74964
2.90321
2.8766
2.84704
2.83102
2.82186
2.80956
2.79298
2.77556
2.75969
2.7447
2.72857
2.71104
2.69299
2.67575
2.66006
2.64454
2.62795
2.6136
2.60566
2.60196
2.60571
2.61595
2.63773
2.66922
2.70257
2.73859
2.76917
2.79993
2.82188
2.84566
2.86071
2.87817
2.88867
2.89935
2.90603
2.91354
2.91759
2.92052
2.92193
2.92224
2.92137
2.92022
2.91807
2.91557
2.91194
2.90883
2.90399
2.90019
2.89448
2.89014
2.88289
2.87809
2.87049
2.86467
2.85754
2.85102
2.84353
2.83681
2.82907
2.8217
2.81369
2.80613
2.79766
2.78972
2.78105
2.77295
2.76402
2.75564
2.74655
2.73797
2.72872
2.71978
2.71036
2.7012
2.69168
2.68232
2.67266
2.6631
2.65343
2.64379
2.63408
2.62439
2.61464
2.60496
2.59528
2.5857
2.57616
2.56672
2.5575
2.54846
2.53985
2.53165
2.52429
2.51776
2.51293
2.50916
2.30407
2.34069
2.53387
2.6712
2.74172
2.83679
2.87575
2.90306
2.90392
2.88768
2.87419
2.85765
2.84985
2.84178
2.83296
2.81814
2.80681
2.79296
2.78331
2.77126
2.76129
2.7494
2.74392
2.74266
2.7522
2.76144
2.78789
2.81254
2.84257
2.86775
2.88759
2.90682
2.91725
2.92518
2.928
2.92854
2.927
2.92713
2.92235
2.91816
2.90858
2.90046
2.89157
2.88499
2.87542
2.86786
2.8583
2.85058
2.84078
2.8321
2.82247
2.81364
2.80487
2.79527
2.7853
2.77548
2.76585
2.75654
2.74703
2.73793
2.72852
2.71947
2.71003
2.70114
2.69189
2.68318
2.67416
2.6656
2.65678
2.64823
2.63952
2.63087
2.62223
2.61348
2.60486
2.59603
2.58742
2.57852
2.56993
2.56093
2.55236
2.54326
2.53469
2.52552
2.51693
2.5077
2.49909
2.48983
2.48124
2.472
2.4635
2.45436
2.44606
2.43725
2.42943
2.42132
2.41447
2.4079
2.40341
2.39968
2.29853
2.29298
2.35464
2.47964
2.54578
2.60059
2.68297
2.754
2.82261
2.86196
2.88292
2.89577
2.91309
2.89371
2.8758
2.8711
2.86998
2.86901
2.86677
2.86426
2.85869
2.8527
2.84785
2.84798
2.85765
2.86644
2.88699
2.90526
2.92614
2.94216
2.94784
2.95005
2.94938
2.94598
2.93846
2.93185
2.9229
2.9144
2.90193
2.89021
2.87753
2.86611
2.8544
2.84278
2.83128
2.81971
2.80844
2.7971
2.78561
2.77436
2.76251
2.75161
2.74056
2.72954
2.71743
2.7057
2.69431
2.68301
2.67181
2.66054
2.64945
2.63824
2.62723
2.61611
2.60528
2.59439
2.58384
2.57317
2.56283
2.55229
2.54216
2.53182
2.52202
2.51202
2.50264
2.49298
2.48399
2.47463
2.46597
2.45688
2.44853
2.43975
2.43165
2.42323
2.41537
2.40732
2.39966
2.39196
2.38447
2.37713
2.36977
2.36284
2.35564
2.34922
2.34224
2.33659
2.33036
2.32635
2.32215
2.3211
2.28357
2.25148
2.2623
2.31651
2.37987
2.43342
2.49091
2.55402
2.61551
2.67718
2.73618
2.78534
2.83193
2.85588
2.8626
2.87006
2.87786
2.88891
2.89628
2.88854
2.88229
2.88325
2.88421
2.88754
2.90255
2.91268
2.92186
2.92746
2.92805
2.9219
2.91445
2.90725
2.89588
2.8851
2.87255
2.85896
2.84394
2.82809
2.81163
2.79616
2.78058
2.76609
2.75104
2.73742
2.72347
2.71077
2.69784
2.68563
2.67351
2.66224
2.65077
2.6405
2.63032
2.62089
2.60995
2.60011
2.58985
2.58084
2.57098
2.56233
2.55266
2.54415
2.53455
2.52604
2.51662
2.50808
2.49871
2.48992
2.48039
2.47133
2.46166
2.45244
2.44267
2.4333
2.42336
2.4138
2.4037
2.39407
2.3839
2.37437
2.36423
2.35494
2.34486
2.33592
2.32593
2.31739
2.30757
2.29952
2.28993
2.28245
2.27317
2.26624
2.2573
2.25104
2.24275
2.23752
2.23039
2.22683
2.22211
2.22156
2.27665
2.22934
2.2141
2.22948
2.2654
2.30318
2.34803
2.39124
2.44355
2.48724
2.53995
2.58541
2.63869
2.6931
2.7425
2.77819
2.8006
2.8202
2.83748
2.8492
2.85507
2.86203
2.86908
2.87316
2.87132
2.86735
2.86272
2.85497
2.84477
2.83178
2.81832
2.8017
2.78389
2.76725
2.7488
2.7323
2.71405
2.69807
2.68125
2.66696
2.65226
2.63962
2.62635
2.61507
2.6029
2.59249
2.58105
2.57109
2.55996
2.55045
2.53974
2.53071
2.5212
2.5128
2.50287
2.49375
2.48401
2.47538
2.46626
2.45792
2.44913
2.44096
2.43243
2.42447
2.41624
2.40852
2.40052
2.393
2.38522
2.37794
2.37036
2.36322
2.35566
2.34852
2.34087
2.33371
2.32596
2.31878
2.31087
2.30363
2.29553
2.28823
2.27996
2.27262
2.26424
2.2569
2.24845
2.2411
2.23255
2.2251
2.21654
2.20913
2.20082
2.19363
2.18581
2.17913
2.17233
2.16683
2.16223
2.15952
2.27216
2.22101
2.18972
2.18408
2.19668
2.21491
2.24423
2.2733
2.30904
2.34433
2.38033
2.4199
2.45743
2.50041
2.54003
2.58309
2.62516
2.66643
2.70355
2.73829
2.76787
2.78582
2.79996
2.80655
2.80554
2.79692
2.78109
2.75667
2.72887
2.69893
2.67215
2.64858
2.62923
2.61143
2.59627
2.5825
2.56974
2.5584
2.54795
2.53864
2.52977
2.52174
2.51383
2.50671
2.49962
2.49298
2.48638
2.48006
2.47349
2.46729
2.46057
2.45449
2.44829
2.44243
2.43562
2.42864
2.42101
2.41394
2.40637
2.39916
2.39145
2.38407
2.37628
2.36875
2.36074
2.35297
2.34471
2.33676
2.32837
2.3203
2.31183
2.30366
2.29517
2.28703
2.27862
2.27057
2.26222
2.25426
2.24591
2.23806
2.22974
2.22207
2.21378
2.2063
2.19806
2.19071
2.18247
2.17522
2.16712
2.16011
2.15225
2.14553
2.13797
2.13166
2.12452
2.11885
2.11249
2.10805
2.10353
2.10194
2.27077
2.21775
2.18002
2.15821
2.15465
2.15993
2.17267
2.19115
2.21213
2.23787
2.26219
2.29113
2.31863
2.34996
2.37986
2.4119
2.44466
2.47852
2.51601
2.55135
2.59004
2.6232
2.65266
2.67021
2.67832
2.66404
2.63429
2.59422
2.55077
2.51149
2.48119
2.46051
2.45029
2.44452
2.44257
2.44106
2.43803
2.43635
2.43377
2.43225
2.42989
2.42806
2.42502
2.42251
2.41862
2.41522
2.41075
2.40657
2.4015
2.39653
2.39068
2.3852
2.37951
2.37421
2.36837
2.36223
2.35558
2.34923
2.34263
2.33626
2.32968
2.32328
2.3167
2.3102
2.30357
2.29698
2.29032
2.2837
2.27693
2.27024
2.26325
2.25645
2.24919
2.24228
2.23469
2.22765
2.21977
2.21265
2.20457
2.19741
2.18923
2.18206
2.1738
2.16652
2.15817
2.15084
2.14251
2.1352
2.1269
2.11963
2.11142
2.10424
2.09621
2.08919
2.08156
2.0749
2.0681
2.06235
2.05746
2.05438
2.26916
2.2179
2.17684
2.14734
2.13086
2.12549
2.12686
2.13511
2.14465
2.16079
2.17576
2.19507
2.21438
2.23566
2.25873
2.28038
2.3069
2.33125
2.36359
2.3951
2.43117
2.46356
2.49728
2.5266
2.5379
2.5212
2.48723
2.44475
2.40052
2.36535
2.34119
2.32407
2.32225
2.32775
2.33713
2.34637
2.35265
2.35773
2.35982
2.36174
2.36154
2.36093
2.35965
2.35766
2.35497
2.35202
2.34834
2.34458
2.34017
2.33576
2.33072
2.32582
2.32068
2.31606
2.31085
2.30548
2.2993
2.29327
2.28679
2.28074
2.27425
2.26825
2.26168
2.25561
2.24894
2.24276
2.23597
2.22966
2.22276
2.21632
2.20936
2.20286
2.19588
2.18938
2.18243
2.17596
2.16901
2.1625
2.15547
2.14884
2.14164
2.13481
2.12741
2.12051
2.11307
2.10619
2.09877
2.09197
2.08468
2.07798
2.07091
2.0643
2.0575
2.05096
2.04449
2.0381
2.03216
2.02634
2.02181
2.01846
2.26624
2.21786
2.17587
2.14279
2.11898
2.10533
2.09777
2.09767
2.10043
2.10663
2.11576
2.12513
2.13906
2.15045
2.16833
2.18207
2.20288
2.22271
2.25046
2.28054
2.31243
2.34881
2.39239
2.43053
2.4417
2.42374
2.39002
2.35146
2.30712
2.27438
2.25007
2.23363
2.22533
2.22575
2.23491
2.24764
2.25963
2.2696
2.2762
2.28097
2.28328
2.28491
2.2849
2.28467
2.28402
2.28295
2.28119
2.27968
2.27724
2.27503
2.27191
2.26883
2.2653
2.26226
2.25877
2.25535
2.25093
2.24649
2.24146
2.23659
2.23126
2.22611
2.22059
2.2152
2.20948
2.20384
2.1979
2.19202
2.18584
2.17973
2.17327
2.16692
2.16015
2.15362
2.14661
2.13999
2.13286
2.12626
2.1191
2.11252
2.10534
2.09883
2.0917
2.08518
2.07806
2.07141
2.06431
2.05753
2.05046
2.0436
2.03659
2.02979
2.02296
2.0164
2.0099
2.00379
1.99784
1.99262
1.98799
1.98547
2.26304
2.21801
2.17658
2.1416
2.11331
2.09408
2.08029
2.07307
2.06993
2.07011
2.07303
2.07652
2.0841
2.09039
2.10081
2.11166
2.12601
2.1459
2.1709
2.19765
2.23427
2.27709
2.33766
2.37679
2.37942
2.3594
2.32833
2.28724
2.2418
2.20471
2.1788
2.16151
2.14976
2.14356
2.14492
2.15376
2.16782
2.18474
2.19907
2.21166
2.21978
2.22641
2.22999
2.23298
2.23444
2.23563
2.23625
2.23627
2.23584
2.23494
2.23335
2.23141
2.22879
2.22623
2.22356
2.22069
2.21709
2.21311
2.20858
2.20397
2.19899
2.19411
2.18892
2.18387
2.17848
2.17322
2.16759
2.16215
2.1563
2.15071
2.14465
2.13893
2.13264
2.12673
2.12018
2.11403
2.10718
2.10074
2.09364
2.08702
2.07984
2.07312
2.06596
2.05925
2.0522
2.04557
2.03861
2.03207
2.02513
2.01859
2.0116
2.00501
1.99797
1.99137
1.98444
1.97802
1.97155
1.96581
1.96072
1.95758
2.25688
2.21655
2.17657
2.14194
2.11148
2.08813
2.07053
2.05788
2.0499
2.04511
2.04285
2.0429
2.04425
2.04725
2.05317
2.06074
2.07437
2.09185
2.11684
2.14389
2.18795
2.25116
2.31703
2.34731
2.34072
2.31952
2.28651
2.24315
2.19845
2.16151
2.13286
2.11416
2.10147
2.09271
2.08975
2.09118
2.09845
2.11241
2.13043
2.148
2.16309
2.17488
2.183
2.18856
2.19204
2.19434
2.19567
2.19657
2.19664
2.1965
2.19571
2.19448
2.19241
2.19034
2.18779
2.18556
2.18262
2.17946
2.17537
2.17143
2.1668
2.16248
2.15756
2.15299
2.14788
2.14308
2.13773
2.13265
2.12702
2.12165
2.11573
2.11011
2.10392
2.09809
2.0917
2.08567
2.07919
2.0731
2.06663
2.06044
2.05395
2.04763
2.04106
2.03461
2.02796
2.02141
2.01473
2.00815
2.00151
1.99495
1.98839
1.98189
1.97545
1.96898
1.96269
1.95632
1.95036
1.94444
1.93956
1.93606
2.24912
2.21319
2.17588
2.1418
2.11135
2.08531
2.06483
2.04896
2.03678
2.02851
2.02247
2.01869
2.01698
2.01714
2.01962
2.02671
2.04148
2.05858
2.08283
2.12064
2.17895
2.26012
2.31578
2.32653
2.31387
2.29164
2.25497
2.21175
2.17057
2.13575
2.10669
2.08454
2.06796
2.0574
2.05012
2.04644
2.04649
2.05106
2.06159
2.07784
2.09623
2.11359
2.1282
2.13928
2.14721
2.15246
2.15595
2.15804
2.15943
2.16024
2.16043
2.16022
2.15937
2.1581
2.15627
2.15463
2.15251
2.15026
2.14712
2.14371
2.13978
2.13576
2.13136
2.12692
2.12217
2.11742
2.11236
2.10735
2.10195
2.09671
2.09096
2.08543
2.07936
2.07351
2.06714
2.06106
2.05455
2.04832
2.04173
2.03541
2.02881
2.02244
2.01589
2.00951
2.003
1.99662
1.9901
1.98372
1.97717
1.9708
1.96425
1.95794
1.95146
1.94528
1.93896
1.93301
1.92703
1.92166
1.91672
1.91381
2.23948
2.20695
2.17319
2.14087
2.11088
2.08496
2.06157
2.04408
2.02885
2.01769
2.00878
2.00249
1.99777
1.99663
1.99847
2.00759
2.02044
2.0418
2.07075
2.12435
2.20759
2.28411
2.31596
2.31253
2.29744
2.26982
2.23124
2.19111
2.15402
2.1219
2.09421
2.07083
2.05163
2.03663
2.0259
2.0192
2.01498
2.01414
2.0166
2.02413
2.03817
2.05608
2.07499
2.09185
2.10589
2.11593
2.12304
2.12738
2.13021
2.13171
2.13266
2.13269
2.13255
2.13181
2.13034
2.12894
2.12718
2.12548
2.12297
2.12024
2.11661
2.11305
2.10882
2.10477
2.10017
2.09577
2.09088
2.08618
2.08103
2.07606
2.07065
2.06542
2.05973
2.0543
2.04845
2.04286
2.03687
2.03108
2.02492
2.01888
2.01257
2.0063
1.99985
1.99344
1.98692
1.98047
1.97394
1.96751
1.96103
1.95462
1.94822
1.94182
1.93552
1.92914
1.92298
1.9167
1.91085
1.90501
1.9001
1.89661
2.22872
2.19915
2.1687
2.13864
2.10962
2.08402
2.0609
2.04073
2.0248
2.01122
2.00005
1.99269
1.98598
1.98494
1.98923
2.00024
2.01478
2.04135
2.08651
2.16328
2.25535
2.30448
2.31136
2.30181
2.28243
2.24978
2.21266
2.17766
2.14592
2.11713
2.09094
2.0673
2.04655
2.02846
2.01357
2.00184
1.99432
1.98963
1.98681
1.98705
1.99136
2.00127
2.01621
2.03473
2.05234
2.06864
2.08083
2.08996
2.09557
2.09918
2.10109
2.10211
2.10241
2.10233
2.10169
2.10066
2.09921
2.09797
2.09613
2.09405
2.09113
2.08795
2.08419
2.08039
2.07612
2.07191
2.06724
2.06268
2.05762
2.05268
2.04722
2.04188
2.03609
2.0305
2.02457
2.01878
2.01278
2.00686
2.00083
1.99486
1.9888
1.98284
1.97672
1.97074
1.96453
1.95851
1.95224
1.94614
1.93988
1.93373
1.92755
1.9214
1.91535
1.90926
1.90338
1.89743
1.89181
1.88632
1.88154
1.87836
2.21556
2.18953
2.16174
2.13449
2.10707
2.08191
2.05911
2.03914
2.02069
2.00724
1.99416
1.9857
1.98045
1.98119
1.98905
2.00225
2.02307
2.06415
2.13487
2.22979
2.29402
2.31018
2.30521
2.29281
2.26876
2.23432
2.20186
2.17189
2.1442
2.1179
2.09317
2.06979
2.04807
2.02806
2.01053
1.9951
1.98251
1.97348
1.96747
1.96428
1.96293
1.96444
1.97075
1.98194
1.99872
2.01659
2.03438
2.04859
2.06005
2.06739
2.0724
2.07494
2.07641
2.07686
2.07681
2.07626
2.07514
2.07416
2.07281
2.0714
2.06919
2.0666
2.06321
2.05973
2.05564
2.05158
2.04703
2.04257
2.03771
2.03292
2.02776
2.02269
2.01733
2.0121
2.00656
2.00117
1.99544
1.98986
1.98397
1.97821
1.97218
1.96628
1.96019
1.95419
1.94808
1.94202
1.93589
1.92977
1.92364
1.91744
1.91136
1.90512
1.89913
1.89295
1.88711
1.8811
1.87553
1.87004
1.86528
1.86208
2.2022
2.1793
2.15417
2.12928
2.10418
2.08006
2.05741
2.03778
2.01925
2.00419
1.99214
1.98289
1.98136
1.98597
1.99659
2.01565
2.05225
2.11646
2.21048
2.28406
2.31044
2.30916
2.29986
2.28121
2.25426
2.22515
2.1975
2.17126
2.14626
2.12168
2.09802
2.07466
2.0526
2.03154
2.01223
1.99462
1.97919
1.966
1.95529
1.94853
1.94361
1.94093
1.93978
1.94227
1.94941
1.96311
1.9794
1.9973
2.01336
2.02704
2.03667
2.04335
2.04705
2.04901
2.04972
2.04967
2.04901
2.04812
2.0468
2.04576
2.04399
2.04204
2.03913
2.03604
2.03233
2.0286
2.02438
2.02018
2.01554
2.01091
2.00589
2.00097
1.99568
1.99049
1.98499
1.97959
1.97395
1.96841
1.96267
1.95705
1.95123
1.94554
1.93966
1.93391
1.92802
1.92222
1.91635
1.91047
1.90466
1.8987
1.89295
1.88696
1.88127
1.87532
1.86973
1.86395
1.85857
1.85327
1.84863
1.84553
2.18884
2.16754
2.1452
2.1218
2.09872
2.07624
2.05438
2.03502
2.01739
2.0025
1.99081
1.98568
1.98826
1.99749
2.01405
2.04725
2.1055
2.19777
2.2776
2.31005
2.31241
2.30581
2.29137
2.26888
2.24373
2.21959
2.19596
2.17282
2.14967
2.12633
2.10328
2.08034
2.05832
2.03692
2.01684
1.99786
1.98035
1.96455
1.95067
1.93891
1.93012
1.92419
1.91961
1.91676
1.91632
1.91997
1.92932
1.94302
1.96062
1.97751
1.99326
2.00517
2.01382
2.01901
2.02189
2.02302
2.02307
2.02252
2.02135
2.02039
2.01907
2.01772
2.01553
2.013
2.00972
2.0063
2.00238
1.99838
1.99395
1.98951
1.98478
1.98011
1.97516
1.97028
1.96514
1.96005
1.95474
1.94946
1.94398
1.93852
1.93291
1.9273
1.9216
1.91589
1.91015
1.90438
1.89864
1.89281
1.88712
1.88126
1.87562
1.86976
1.86418
1.8584
1.85291
1.84731
1.84205
1.83692
1.83241
1.8294
2.17632
2.15554
2.13525
2.11419
2.09259
2.07158
2.05099
2.03226
2.01553
2.00245
1.99372
1.99448
2.00298
2.01731
2.04652
2.10046
2.18991
2.27234
2.3098
2.31577
2.31095
2.29976
2.28055
2.25821
2.23689
2.21614
2.19563
2.17448
2.15298
2.13062
2.1083
2.08581
2.064
2.04255
2.02205
2.00227
1.98366
1.96612
1.95005
1.9353
1.9227
1.9117
1.90415
1.89781
1.89384
1.89123
1.89182
1.89701
1.90749
1.92316
1.93986
1.95708
1.97095
1.98218
1.98914
1.99346
1.99535
1.99574
1.99519
1.99428
1.99298
1.99194
1.99029
1.98831
1.98565
1.98274
1.97926
1.97563
1.97152
1.96738
1.96286
1.95836
1.95354
1.9488
1.94378
1.93882
1.93365
1.92852
1.92325
1.91796
1.91262
1.90721
1.90179
1.89627
1.89081
1.8852
1.87971
1.87404
1.86855
1.86288
1.85741
1.8518
1.84637
1.84087
1.83555
1.83023
1.82516
1.82029
1.81598
1.8131
2.16371
2.1429
2.12377
2.10417
2.08477
2.06512
2.04655
2.02886
2.01396
2.00376
2.00328
2.01009
2.02364
2.05099
2.10135
2.18659
2.26904
2.30949
2.31867
2.31499
2.30606
2.28951
2.26948
2.25071
2.23243
2.21461
2.19588
2.17626
2.15522
2.13399
2.11222
2.09073
2.06918
2.0481
2.02722
2.00722
1.98752
1.96911
1.95112
1.93468
1.91907
1.90497
1.89357
1.88357
1.87673
1.87053
1.86694
1.86513
1.86681
1.87347
1.88592
1.90181
1.91907
1.93522
1.94836
1.95813
1.96407
1.96717
1.9683
1.96803
1.96701
1.96603
1.96478
1.96342
1.96141
1.95905
1.9561
1.95286
1.94916
1.94536
1.94117
1.93697
1.93243
1.92792
1.92312
1.91836
1.91339
1.90842
1.90332
1.89817
1.89298
1.88769
1.88243
1.87705
1.87174
1.86631
1.86098
1.85552
1.85019
1.84474
1.83945
1.83404
1.82882
1.8235
1.81844
1.81331
1.80853
1.80387
1.79985
1.7971
2.1505
2.1314
2.11203
2.09417
2.07586
2.05825
2.04115
2.02685
2.01467
2.01179
2.01767
2.03132
2.05618
2.1047
2.18626
2.26803
2.30966
2.32079
2.318
2.31054
2.29559
2.27809
2.26092
2.24526
2.22902
2.21258
2.1943
2.17559
2.15558
2.13549
2.11449
2.0937
2.07241
2.0516
2.03074
2.01044
1.99057
1.97129
1.95247
1.93462
1.91733
1.90186
1.88715
1.87434
1.86371
1.85497
1.84842
1.84259
1.83979
1.83897
1.84186
1.84982
1.86432
1.87978
1.89744
1.91204
1.92448
1.93246
1.93753
1.93963
1.93998
1.9393
1.93828
1.93719
1.93571
1.9339
1.93145
1.92873
1.92553
1.92216
1.91836
1.91447
1.91025
1.90598
1.90149
1.89692
1.89223
1.88741
1.88255
1.87755
1.87258
1.86744
1.86238
1.85718
1.85207
1.84684
1.84172
1.83648
1.83138
1.82616
1.8211
1.81595
1.811
1.80598
1.80122
1.79643
1.79203
1.78775
1.78412
1.78164
2.13559
2.11863
2.10028
2.08261
2.06638
2.05043
2.03587
2.02453
2.02087
2.02598
2.03962
2.06357
2.1103
2.1888
2.269
2.31072
2.32279
2.32032
2.31322
2.29924
2.28209
2.26686
2.25245
2.23867
2.22384
2.20828
2.19118
2.17335
2.15419
2.1348
2.1145
2.09435
2.0736
2.05322
2.03254
2.01237
1.9921
1.97245
1.95311
1.93464
1.91673
1.89977
1.88357
1.86883
1.85523
1.84345
1.83381
1.82583
1.81922
1.81454
1.8121
1.81231
1.8166
1.82649
1.84092
1.85755
1.87405
1.88842
1.89918
1.90666
1.91023
1.91186
1.9116
1.91082
1.90971
1.90854
1.90662
1.90433
1.90163
1.89872
1.89538
1.89184
1.88795
1.88395
1.87972
1.87541
1.87094
1.86637
1.86173
1.85696
1.85219
1.84727
1.84242
1.83741
1.83252
1.82747
1.82259
1.81756
1.81272
1.80774
1.80296
1.79807
1.79343
1.7887
1.7843
1.77985
1.77585
1.77199
1.76886
1.76669
2.11958
2.10641
2.08848
2.07252
2.057
2.04381
2.03302
2.02867
2.03379
2.04772
2.07171
2.11749
2.19411
2.27244
2.31329
2.32547
2.32291
2.31533
2.30046
2.28374
2.26963
2.25681
2.24449
2.23145
2.2175
2.20233
2.18606
2.16879
2.15068
2.13203
2.11261
2.09306
2.0728
2.05282
2.03227
2.01229
1.99199
1.97244
1.95295
1.93407
1.91574
1.89783
1.88099
1.86466
1.84964
1.83572
1.8231
1.81258
1.80335
1.79616
1.78957
1.78606
1.78431
1.78561
1.79134
1.8033
1.81753
1.83524
1.85071
1.86477
1.87414
1.88054
1.88309
1.88391
1.88317
1.88249
1.88125
1.87953
1.87725
1.87482
1.87199
1.86887
1.86542
1.86173
1.85786
1.85377
1.84962
1.84524
1.84087
1.83626
1.83175
1.82699
1.82238
1.81755
1.8129
1.80807
1.80344
1.79864
1.79409
1.78938
1.78494
1.78035
1.7761
1.7717
1.76775
1.76373
1.76029
1.75698
1.75454
1.75283
2.09829
2.09229
2.07886
2.06187
2.04852
2.03752
2.03453
2.04021
2.05459
2.07976
2.12549
2.20186
2.27861
2.31714
2.32836
2.32535
2.31675
2.30002
2.28367
2.26925
2.2581
2.24677
2.23563
2.22273
2.20926
2.19415
2.17861
2.16174
2.14456
2.12629
2.10776
2.08854
2.06909
2.04942
2.02952
2.00983
1.98997
1.97063
1.95113
1.93241
1.91362
1.89577
1.87818
1.86148
1.84542
1.83029
1.81599
1.80307
1.79128
1.78154
1.77296
1.766
1.7603
1.75752
1.7568
1.75936
1.76653
1.77969
1.7952
1.81248
1.82768
1.84031
1.84877
1.85351
1.85566
1.85554
1.85489
1.85397
1.85245
1.85056
1.84823
1.84555
1.84259
1.83932
1.8359
1.83213
1.82834
1.8242
1.82015
1.81578
1.81154
1.80703
1.80265
1.79805
1.79361
1.78896
1.78455
1.77994
1.77565
1.77115
1.76706
1.76275
1.75894
1.75494
1.75154
1.74807
1.74534
1.7428
1.7413
1.74016
2.07691
2.07685
2.06765
2.05457
2.04189
2.0378
2.04423
2.0595
2.08734
2.13481
2.21162
2.28737
2.32317
2.33281
2.32913
2.31844
2.3007
2.28345
2.26908
2.25774
2.24722
2.23695
2.22541
2.21309
2.19944
2.18513
2.16983
2.15385
2.13706
2.11961
2.10164
2.0831
2.06442
2.04522
2.02619
2.00672
1.98751
1.96816
1.94904
1.9302
1.91159
1.89362
1.87581
1.85885
1.84203
1.82618
1.81068
1.7964
1.78271
1.77071
1.75987
1.75083
1.74289
1.73612
1.73187
1.72994
1.73033
1.73411
1.74349
1.75654
1.77381
1.78948
1.80515
1.81561
1.82359
1.82694
1.82834
1.82791
1.82737
1.82628
1.8244
1.82203
1.81954
1.81671
1.81372
1.81047
1.807
1.8034
1.79955
1.79566
1.79159
1.78746
1.78326
1.77896
1.77474
1.77035
1.76618
1.76178
1.75775
1.75348
1.74969
1.74571
1.74228
1.73878
1.73593
1.73322
1.73137
1.72991
1.7293
1.72866
2.04634
2.05738
2.05554
2.04727
2.04091
2.04681
2.06359
2.09323
2.14386
2.22256
2.2983
2.33231
2.33924
2.33442
2.32041
2.30103
2.28246
2.26842
2.25658
2.24689
2.23655
2.2264
2.21456
2.2024
2.18871
2.17483
2.15971
2.14441
2.12794
2.11128
2.09365
2.0759
2.05757
2.0391
2.02044
2.00153
1.98277
1.96375
1.94515
1.9264
1.90823
1.89
1.87245
1.85492
1.83816
1.82161
1.80588
1.79064
1.77627
1.76274
1.75025
1.73898
1.72942
1.72072
1.71351
1.70746
1.70455
1.70351
1.70503
1.71037
1.7213
1.73564
1.75293
1.76864
1.78307
1.79252
1.79932
1.80149
1.8024
1.80189
1.80095
1.79945
1.79733
1.79507
1.79233
1.78941
1.78626
1.78291
1.77951
1.77575
1.77217
1.76812
1.76444
1.7602
1.75648
1.75216
1.74845
1.74417
1.74056
1.73648
1.7331
1.72942
1.72651
1.72352
1.72142
1.71962
1.71887
1.71832
1.7187
1.7187
2.00366
2.03513
2.04192
2.04286
2.04813
2.06538
2.09679
2.15383
2.23636
2.30983
2.34008
2.34483
2.33875
2.3224
2.30038
2.28194
2.2667
2.25555
2.24513
2.23573
2.22512
2.21453
2.20247
2.19037
2.17686
2.1634
2.14863
2.13391
2.11785
2.10187
2.08462
2.06761
2.04961
2.03192
2.01357
1.99542
1.97696
1.95861
1.94022
1.92197
1.90386
1.88596
1.86835
1.85096
1.83413
1.81743
1.80165
1.78586
1.77127
1.75679
1.74354
1.73089
1.71941
1.70925
1.70038
1.6925
1.68576
1.68132
1.67911
1.67948
1.68231
1.68927
1.70147
1.71737
1.73395
1.75033
1.76234
1.77193
1.77618
1.77841
1.7781
1.77749
1.77627
1.77428
1.77192
1.76923
1.7665
1.76344
1.76043
1.75697
1.75367
1.74987
1.74638
1.7424
1.73887
1.73487
1.7314
1.72753
1.72423
1.72065
1.71768
1.71463
1.7123
1.71019
1.7091
1.70853
1.70872
1.70959
1.71128
1.71182
1.92484
2.00983
2.03097
2.04387
2.06474
2.10348
2.16919
2.25493
2.32249
2.35134
2.35296
2.34426
2.32417
2.3003
2.28105
2.26564
2.25402
2.2435
2.23411
2.22378
2.21333
2.20152
2.18953
2.17649
2.16341
2.14956
2.13559
2.12092
2.10594
2.09025
2.07418
2.05746
2.04044
2.02293
2.00527
1.98733
1.96941
1.95143
1.93353
1.91578
1.89807
1.88072
1.86333
1.84654
1.82968
1.81361
1.7975
1.78228
1.76723
1.75279
1.73883
1.72548
1.71293
1.70134
1.69079
1.68168
1.67343
1.66619
1.66054
1.65763
1.65714
1.65855
1.66284
1.67227
1.68534
1.70272
1.71911
1.73508
1.74575
1.75371
1.75664
1.75799
1.75742
1.75629
1.7548
1.75214
1.74977
1.74649
1.74386
1.74034
1.73747
1.73372
1.73063
1.72676
1.72354
1.7197
1.71649
1.71286
1.70988
1.7067
1.70422
1.70184
1.70029
1.6994
1.69943
1.70015
1.70165
1.70391
1.70786
1.71005
1.76549
1.95722
2.016