/*--------------------------------*- C++ -*----------------------------------*\
  =========                 |
  \\      /  F ield         | OpenFOAM: The Open Source CFD Toolbox
   \\    /   O peration     | Website:  https://openfoam.org
    \\  /    A nd           | Version:  13
     \\/     M anipulation  |
\*---------------------------------------------------------------------------*/
FoamFile
{
    format      ascii;
    class       volVectorField;
    location    "6.5";
    object      U;
}
// * * * * * * * * * * * * * * * * * * * * * * * * * * * * * * * * * * * * * //

dimensions      [0 1 -1 0 0 0 0];

internalField   nonuniform List<vector> 
5250
(
(3 5.81393e-09 0)
(2.99999 1.16491e-07 0)
(2.99996 9.06292e-08 0)
(2.9999 1.08671e-06 0)
(2.99975 1.01771e-06 0)
(2.99939 5.61725e-06 0)
(2.99849 1.12266e-05 0)
(2.99626 2.6399e-05 0)
(2.99075 8.45709e-05 0)
(2.97685 0.000159242 0)
(2.94061 0.000491157 0)
(2.84048 0.00117256 0)
(2.54854 0.00340407 0)
(1.71178 0.00961861 0)
(0.786595 0.0249861 0)
(0.494533 0.0238683 0)
(0.547281 0.024111 0)
(0.55661 0.0258996 0)
(0.503935 0.0277422 0)
(0.41636 0.0296578 0)
(0.332852 0.0319777 0)
(0.264034 0.0347274 0)
(0.194937 0.037608 0)
(0.116462 0.0408919 0)
(0.0502003 0.0452551 0)
(3 4.32104e-08 0)
(2.99999 2.0396e-07 0)
(2.99996 8.52277e-07 0)
(2.9999 2.00702e-06 0)
(2.99976 6.33774e-06 0)
(2.9994 1.31679e-05 0)
(2.9985 4.08867e-05 0)
(2.99632 8.07766e-05 0)
(2.99086 0.000248051 0)
(2.97718 0.000526037 0)
(2.94149 0.00148009 0)
(2.84279 0.00370044 0)
(2.55577 0.0104497 0)
(1.7288 0.0299831 0)
(0.796602 0.0760987 0)
(0.491025 0.0688199 0)
(0.546331 0.0665004 0)
(0.556804 0.0694297 0)
(0.503909 0.072474 0)
(0.416385 0.0757584 0)
(0.332939 0.0796003 0)
(0.26364 0.0838746 0)
(0.193617 0.0878268 0)
(0.113961 0.0915847 0)
(0.0472949 0.0949001 0)
(3 7.5796e-08 0)
(2.99999 3.24284e-07 0)
(2.99996 1.5835e-06 0)
(2.9999 3.26787e-06 0)
(2.99976 1.14445e-05 0)
(2.99942 2.31963e-05 0)
(2.99854 6.87609e-05 0)
(2.99643 0.000149108 0)
(2.99112 0.000402851 0)
(2.97788 0.000942068 0)
(2.94326 0.00247716 0)
(2.84793 0.00636464 0)
(2.57054 0.017772 0)
(1.76768 0.0513331 0)
(0.819951 0.131652 0)
(0.486504 0.116636 0)
(0.547648 0.11152 0)
(0.561022 0.116708 0)
(0.508219 0.122455 0)
(0.421199 0.129164 0)
(0.338056 0.136451 0)
(0.268282 0.144228 0)
(0.197184 0.151586 0)
(0.115966 0.158117 0)
(0.047274 0.16236 0)
(3 8.73323e-08 0)
(2.99999 5.53048e-07 0)
(2.99996 1.86062e-06 0)
(2.99991 5.40423e-06 0)
(2.99977 1.38359e-05 0)
(2.99944 3.5472e-05 0)
(2.99861 8.88498e-05 0)
(2.9966 0.000217166 0)
(2.99152 0.000549282 0)
(2.97891 0.00133854 0)
(2.94598 0.00343116 0)
(2.85562 0.00891499 0)
(2.59327 0.0248197 0)
(1.82776 0.0716412 0)
(0.856678 0.187003 0)
(0.48099 0.163902 0)
(0.551663 0.155732 0)
(0.569868 0.163246 0)
(0.517532 0.171884 0)
(0.4314 0.182415 0)
(0.348577 0.193508 0)
(0.278262 0.205287 0)
(0.205712 0.216893 0)
(0.121852 0.227133 0)
(0.0493833 0.23288 0)
(3 9.24754e-08 0)
(2.99999 7.44137e-07 0)
(2.99997 2.10394e-06 0)
(2.99991 7.28275e-06 0)
(2.99979 1.58316e-05 0)
(2.99948 4.78082e-05 0)
(2.99869 0.00010259 0)
(2.99682 0.000291825 0)
(2.99206 0.000654255 0)
(2.98028 0.00175088 0)
(2.94958 0.0042426 0)
(2.86576 0.0113306 0)
(2.62322 0.0311743 0)
(1.90904 0.090236 0)
(0.907338 0.241167 0)
(0.476615 0.211496 0)
(0.559432 0.200026 0)
(0.583939 0.209431 0)
(0.532263 0.220701 0)
(0.447251 0.23514 0)
(0.364587 0.250281 0)
(0.293645 0.266495 0)
(0.219386 0.283034 0)
(0.13179 0.298029 0)
(0.0535733 0.306309 0)
(3 1.20799e-07 0)
(2.99999 7.90064e-07 0)
(2.99997 2.68599e-06 0)
(2.99992 7.7476e-06 0)
(2.99981 2.00037e-05 0)
(2.99952 5.2158e-05 0)
(2.99881 0.000125954 0)
(2.99706 0.000326231 0)
(2.99274 0.000780911 0)
(2.9819 0.00200641 0)
(2.95399 0.00498098 0)
(2.87805 0.0131408 0)
(2.65969 0.0361824 0)
(2.01148 0.104908 0)
(0.975173 0.289208 0)
(0.479343 0.259329 0)
(0.573783 0.245299 0)
(0.605086 0.255791 0)
(0.554109 0.26931 0)
(0.470377 0.288028 0)
(0.387594 0.307923 0)
(0.315731 0.329644 0)
(0.239317 0.352615 0)
(0.146744 0.374474 0)
(0.0605129 0.387635 0)
(3 1.2819e-07 0)
(2.99999 8.35938e-07 0)
(2.99997 2.83841e-06 0)
(2.99993 8.20759e-06 0)
(2.99982 2.12881e-05 0)
(2.99957 5.49965e-05 0)
(2.99892 0.000135134 0)
(2.99736 0.000345463 0)
(2.99346 0.000837779 0)
(2.98378 0.00214991 0)
(2.95886 0.00533904 0)
(2.89187 0.0141027 0)
(2.70029 0.0387537 0)
(2.13126 0.112796 0)
(1.06359 0.324305 0)
(0.500644 0.308965 0)
(0.599295 0.295883 0)
(0.635784 0.305111 0)
(0.585591 0.319234 0)
(0.50332 0.341806 0)
(0.419994 0.366966 0)
(0.346951 0.395409 0)
(0.26823 0.426906 0)
(0.169662 0.45928 0)
(0.0720767 0.482427 0)
(3 1.24669e-07 0)
(2.99999 7.91777e-07 0)
(2.99998 2.68421e-06 0)
(2.99994 7.76478e-06 0)
(2.99984 2.01098e-05 0)
(2.99961 5.12122e-05 0)
(2.99905 0.000128626 0)
(2.99765 0.000315385 0)
(2.99424 0.000796463 0)
(2.98565 0.00194327 0)
(2.96396 0.00495495 0)
(2.90601 0.012703 0)
(2.74274 0.0347087 0)
(2.26271 0.0995851 0)
(1.18628 0.294946 0)
(0.562405 0.340476 0)
(0.644084 0.347057 0)
(0.678374 0.355786 0)
(0.628625 0.370709 0)
(0.548271 0.397107 0)
(0.464218 0.428279 0)
(0.389912 0.464819 0)
(0.309478 0.507168 0)
(0.205414 0.555286 0)
(0.092317 0.599353 0)
(3 1.14436e-07 0)
(2.99999 6.8976e-07 0)
(2.99998 2.4798e-06 0)
(2.99994 6.68776e-06 0)
(2.99986 1.82294e-05 0)
(2.99966 4.44159e-05 0)
(2.99914 0.000113028 0)
(2.99792 0.000275152 0)
(2.99481 0.000681036 0)
(2.98724 0.00168427 0)
(2.96783 0.00416882 0)
(2.91667 0.0106492 0)
(2.77286 0.0283222 0)
(2.3494 0.0794551 0)
(1.29822 0.235126 0)
(0.604033 0.375921 0)
(0.664718 0.408387 0)
(0.702331 0.407889 0)
(0.665247 0.42407 0)
(0.595098 0.452759 0)
(0.515981 0.491276 0)
(0.444168 0.536993 0)
(0.36626 0.592562 0)
(0.262835 0.665529 0)
(0.129811 0.753663 0)
(3 1.00076e-07 0)
(2.99999 6.77087e-07 0)
(2.99998 2.19282e-06 0)
(2.99995 6.59359e-06 0)
(2.99988 1.62966e-05 0)
(2.99969 4.31113e-05 0)
(2.99925 0.000103243 0)
(2.99812 0.000261769 0)
(2.99542 0.000633027 0)
(2.98856 0.00157974 0)
(2.97141 0.00389353 0)
(2.92612 0.00991183 0)
(2.79946 0.0262198 0)
(2.42846 0.0731522 0)
(1.4427 0.215591 0)
(0.68665 0.427624 0)
(0.672677 0.460909 0)
(0.704674 0.456177 0)
(0.69127 0.474938 0)
(0.638397 0.505303 0)
(0.571917 0.551881 0)
(0.50846 0.607457 0)
(0.443576 0.68205 0)
(0.358451 0.797659 0)
(0.20124 1.0057 0)
(3 1.07321e-07 0)
(2.99999 6.30438e-07 0)
(2.99998 2.25347e-06 0)
(2.99996 6.14957e-06 0)
(2.99989 1.67983e-05 0)
(2.99973 4.02744e-05 0)
(2.99933 0.00010706 0)
(2.99836 0.000244984 0)
(2.99591 0.000655121 0)
(2.98996 0.00149801 0)
(2.97478 0.00393693 0)
(2.93523 0.00964779 0)
(2.8254 0.0257903 0)
(2.50472 0.0715464 0)
(1.61218 0.209043 0)
(0.794074 0.473416 0)
(0.679606 0.491391 0)
(0.710742 0.493552 0)
(0.714411 0.515812 0)
(0.679656 0.551131 0)
(0.630807 0.603399 0)
(0.585049 0.66932 0)
(0.553159 0.761822 0)
(0.550324 0.905876 0)
(0.587232 1.15043 0)
(3 9.51974e-08 0)
(2.99999 6.63692e-07 0)
(2.99998 2.15081e-06 0)
(2.99996 6.48787e-06 0)
(2.9999 1.60197e-05 0)
(2.99976 4.3265e-05 0)
(2.99942 9.99795e-05 0)
(2.99858 0.000267965 0)
(2.99646 0.000610709 0)
(2.99129 0.0016186 0)
(2.97821 0.00381169 0)
(2.94431 0.00995682 0)
(2.85107 0.0256807 0)
(2.58037 0.0717503 0)
(1.80126 0.20769 0)
(0.9228 0.516787 0)
(0.690424 0.521012 0)
(0.72296 0.524664 0)
(0.740814 0.547136 0)
(0.721795 0.588294 0)
(0.691641 0.643887 0)
(0.669012 0.71733 0)
(0.67215 0.817472 0)
(0.728817 0.956771 0)
(0.86819 1.13938 0)
(3 1.01805e-07 0)
(3 6.28927e-07 0)
(2.99999 2.20204e-06 0)
(2.99997 6.17515e-06 0)
(2.99992 1.63423e-05 0)
(2.9998 4.11948e-05 0)
(2.99951 0.000103008 0)
(2.99879 0.000255459 0)
(2.99704 0.000632408 0)
(2.99263 0.00157182 0)
(2.98173 0.00391179 0)
(2.95347 0.0098852 0)
(2.87689 0.0258373 0)
(2.65662 0.0714267 0)
(2.0089 0.206916 0)
(1.07621 0.553786 0)
(0.716899 0.55825 0)
(0.74661 0.560366 0)
(0.774367 0.575601 0)
(0.768556 0.617737 0)
(0.753973 0.675359 0)
(0.753133 0.749582 0)
(0.781657 0.844524 0)
(0.862438 0.959639 0)
(1.01943 1.07242 0)
(3 9.425e-08 0)
(3 5.81421e-07 0)
(2.99999 2.04765e-06 0)
(2.99997 5.67877e-06 0)
(2.99993 1.52691e-05 0)
(2.99984 3.79498e-05 0)
(2.9996 9.65304e-05 0)
(2.99902 0.000237171 0)
(2.99756 0.00059181 0)
(2.99403 0.00146844 0)
(2.98513 0.00365119 0)
(2.9626 0.0092248 0)
(2.90242 0.0238854 0)
(2.73226 0.0654462 0)
(2.2319 0.188755 0)
(1.27206 0.538666 0)
(0.787797 0.592666 0)
(0.792112 0.603345 0)
(0.818774 0.608824 0)
(0.824039 0.644443 0)
(0.819144 0.699413 0)
(0.831299 0.768145 0)
(0.873851 0.849553 0)
(0.960045 0.938639 0)
(1.1077 1.011 0)
(3 7.86685e-08 0)
(3 5.06584e-07 0)
(2.99999 1.74945e-06 0)
(2.99998 4.92465e-06 0)
(2.99995 1.29517e-05 0)
(2.99987 3.28568e-05 0)
(2.99968 8.07047e-05 0)
(2.9992 0.000204692 0)
(2.99806 0.000487835 0)
(2.99518 0.00125195 0)
(2.98819 0.0029831 0)
(2.97035 0.00763334 0)
(2.92378 0.0192153 0)
(2.79459 0.0516909 0)
(2.41956 0.146101 0)
(1.49729 0.435484 0)
(0.88815 0.615397 0)
(0.845758 0.643353 0)
(0.864851 0.650873 0)
(0.881307 0.673636 0)
(0.884386 0.719402 0)
(0.902675 0.778509 0)
(0.950261 0.845179 0)
(1.0342 0.913029 0)
(1.16616 0.964077 0)
(3 6.996e-08 0)
(3 4.09167e-07 0)
(2.99999 1.49364e-06 0)
(2.99998 3.98709e-06 0)
(2.99996 1.10005e-05 0)
(2.99989 2.6398e-05 0)
(2.99974 6.8674e-05 0)
(2.99936 0.000162436 0)
(2.99843 0.000414804 0)
(2.99611 0.000987182 0)
(2.99045 0.00248901 0)
(2.97613 0.00605486 0)
(2.93902 0.0153839 0)
(2.83701 0.040069 0)
(2.54234 0.110881 0)
(1.73194 0.327997 0)
(1.00501 0.649556 0)
(0.881752 0.680099 0)
(0.89786 0.69254 0)
(0.924862 0.703284 0)
(0.941617 0.737494 0)
(0.965659 0.785733 0)
(1.01419 0.839218 0)
(1.09301 0.890961 0)
(1.20884 0.928789 0)
(3 5.80812e-08 0)
(3 3.66141e-07 0)
(2.99999 1.24192e-06 0)
(2.99999 3.5776e-06 0)
(2.99997 9.25207e-06 0)
(2.99992 2.33878e-05 0)
(2.99979 5.89077e-05 0)
(2.99949 0.000142171 0)
(2.99875 0.000362051 0)
(2.99691 0.00085815 0)
(2.99241 0.00220396 0)
(2.98109 0.00527689 0)
(2.95204 0.0135784 0)
(2.87327 0.0348741 0)
(2.64747 0.0963348 0)
(1.99353 0.279545 0)
(1.17181 0.680034 0)
(0.917634 0.712121 0)
(0.925712 0.724908 0)
(0.958372 0.728614 0)
(0.989451 0.751629 0)
(1.02005 0.790542 0)
(1.06827 0.833733 0)
(1.14113 0.873705 0)
(1.24247 0.902169 0)
(3 4.88381e-08 0)
(3 3.11561e-07 0)
(3 1.06106e-06 0)
(2.99999 3.04521e-06 0)
(2.99997 7.8795e-06 0)
(2.99993 2.01781e-05 0)
(2.99984 4.98957e-05 0)
(2.99961 0.000124017 0)
(2.99903 0.00030657 0)
(2.99764 0.000753916 0)
(2.99413 0.0018728 0)
(2.9856 0.00463112 0)
(2.9637 0.0116336 0)
(2.90571 0.0300629 0)
(2.74298 0.0817035 0)
(2.265 0.235366 0)
(1.3978 0.646728 0)
(0.993504 0.732537 0)
(0.969995 0.74803 0)
(0.993985 0.752211 0)
(1.03329 0.764973 0)
(1.06979 0.794698 0)
(1.1162 0.829268 0)
(1.18232 0.860468 0)
(1.27094 0.882061 0)
(3 3.97154e-08 0)
(3 2.48363e-07 0)
(3 8.66501e-07 0)
(2.99999 2.42096e-06 0)
(2.99998 6.41945e-06 0)
(2.99995 1.60939e-05 0)
(2.99988 4.00841e-05 0)
(2.9997 9.94068e-05 0)
(2.99927 0.000242508 0)
(2.99821 0.000603984 0)
(2.99564 0.00146679 0)
(2.98922 0.00366533 0)
(2.97324 0.00903592 0)
(2.9316 0.0230682 0)
(2.81744 0.0612001 0)
(2.48903 0.172533 0)
(1.67062 0.508827 0)
(1.10697 0.739527 0)
(1.02588 0.767934 0)
(1.03658 0.779558 0)
(1.07516 0.783754 0)
(1.11568 0.802273 0)
(1.15993 0.827746 0)
(1.21925 0.85143 0)
(1.29677 0.867535 0)
(3 3.05674e-08 0)
(3 2.01694e-07 0)
(3 6.65739e-07 0)
(2.99999 1.96361e-06 0)
(2.99998 4.94333e-06 0)
(2.99996 1.28194e-05 0)
(2.99991 3.11786e-05 0)
(2.99978 7.76484e-05 0)
(2.99945 0.000189663 0)
(2.99866 0.000463179 0)
(2.99668 0.00114617 0)
(2.99191 0.0027766 0)
(2.97985 0.00693099 0)
(2.94903 0.0172182 0)
(2.86546 0.0448296 0)
(2.62756 0.122523 0)
(1.95754 0.362213 0)
(1.25411 0.749922 0)
(1.07092 0.792656 0)
(1.071 0.808335 0)
(1.10691 0.807293 0)
(1.15345 0.812037 0)
(1.19835 0.828583 0)
(1.25256 0.846022 0)
(1.32089 0.857749 0)
(3 2.40832e-08 0)
(3 1.58645e-07 0)
(3 5.31888e-07 0)
(3 1.54513e-06 0)
(2.99999 3.93989e-06 0)
(2.99997 1.0226e-05 0)
(2.99993 2.45866e-05 0)
(2.99983 6.29017e-05 0)
(2.9996 0.000148692 0)
(2.99901 0.000380574 0)
(2.99757 0.000898461 0)
(2.99404 0.00229895 0)
(2.98527 0.0055089 0)
(2.96304 0.0140656 0)
(2.90409 0.0357771 0)
(2.73893 0.0973019 0)
(2.25574 0.280809 0)
(1.4717 0.719671 0)
(1.14039 0.812424 0)
(1.11305 0.828343 0)
(1.13559 0.829118 0)
(1.1836 0.824468 0)
(1.23286 0.832193 0)
(1.28371 0.84379 0)
(1.34429 0.851856 0)
(3 1.93705e-08 0)
(3 1.18681e-07 0)
(3 4.17055e-07 0)
(3 1.15627e-06 0)
(2.99999 3.08365e-06 0)
(2.99998 7.63993e-06 0)
(2.99995 1.92853e-05 0)
(2.99988 4.67822e-05 0)
(2.99971 0.000116575 0)
(2.99929 0.00028302 0)
(2.99828 0.000700516 0)
(2.99575 0.00171024 0)
(2.98965 0.00423718 0)
(2.97423 0.0104635 0)
(2.93453 0.0266545 0)
(2.82673 0.0704548 0)
(2.51605 0.199078 0)
(1.76415 0.571544 0)
(1.2578 0.810835 0)
(1.16847 0.839331 0)
(1.17343 0.848858 0)
(1.21417 0.842074 0)
(1.26471 0.839845 0)
(1.3134 0.84493 0)
(1.3677 0.849489 0)
(3 1.39046e-08 0)
(3 9.08723e-08 0)
(3 3.02813e-07 0)
(3 8.84187e-07 0)
(2.99999 2.24226e-06 0)
(2.99999 5.78124e-06 0)
(2.99997 1.40723e-05 0)
(2.99992 3.50043e-05 0)
(2.99979 8.53726e-05 0)
(2.9995 0.000208369 0)
(2.99876 0.000514801 0)
(2.99699 0.00124065 0)
(2.99256 0.00309288 0)
(2.9817 0.00751377 0)
(2.95384 0.0189021 0)
(2.87935 0.0486464 0)
(2.66941 0.132473 0)
(2.07602 0.390019 0)
(1.41581 0.803234 0)
(1.21838 0.858887 0)
(1.20843 0.87006 0)
(1.23862 0.86365 0)
(1.28999 0.852487 0)
(1.34034 0.850202 0)
(1.39086 0.850557 0)
(3 1.05541e-08 0)
(3 6.5646e-08 0)
(3 2.30079e-07 0)
(3 6.38676e-07 0)
(3 1.6952e-06 0)
(2.99999 4.22781e-06 0)
(2.99998 1.04997e-05 0)
(2.99994 2.59567e-05 0)
(2.99986 6.2929e-05 0)
(2.99965 0.000156475 0)
(2.99914 0.000375589 0)
(2.9979 0.000941749 0)
(2.99488 0.00225386 0)
(2.98739 0.00566997 0)
(2.96868 0.0138559 0)
(2.9197 0.035683 0)
(2.78566 0.0948899 0)
(2.39506 0.273336 0)
(1.66967 0.707304 0)
(1.30748 0.858386 0)
(1.25575 0.880495 0)
(1.2688 0.883151 0)
(1.31365 0.869701 0)
(1.36505 0.860461 0)
(1.41364 0.855989 0)
(3 7.85287e-09 0)
(3 4.6607e-08 0)
(3 1.67637e-07 0)
(3 4.53164e-07 0)
(3 1.23238e-06 0)
(2.99999 2.98215e-06 0)
(2.99998 7.65661e-06 0)
(2.99996 1.81562e-05 0)
(2.9999 4.58048e-05 0)
(2.99976 0.000109099 0)
(2.99941 0.000271646 0)
(2.99855 0.000653873 0)
(2.9965 0.00161331 0)
(2.99136 0.00393534 0)
(2.97879 0.00970543 0)
(2.94642 0.0243341 0)
(2.85992 0.0633004 0)
(2.61417 0.175139 0)
(1.97597 0.504774 0)
(1.43771 0.837259 0)
(1.3078 0.887037 0)
(1.30279 0.899988 0)
(1.33596 0.890052 0)
(1.38681 0.873531 0)
(1.43509 0.864791 0)
(3 5.52851e-09 0)
(3 3.36755e-08 0)
(3 1.17895e-07 0)
(3 3.27237e-07 0)
(3 8.69525e-07 0)
(3 2.13677e-06 0)
(2.99999 5.43363e-06 0)
(2.99997 1.29114e-05 0)
(2.99993 3.26875e-05 0)
(2.99983 7.71017e-05 0)
(2.9996 0.000194554 0)
(2.99902 0.000460336 0)
(2.99761 0.00115632 0)
(2.99413 0.00276481 0)
(2.98564 0.00691393 0)
(2.96412 0.0169463 0)
(2.90767 0.0435869 0)
(2.75173 0.116455 0)
(2.30112 0.337963 0)
(1.64463 0.77922 0)
(1.37554 0.892264 0)
(1.34109 0.911903 0)
(1.3573 0.910405 0)
(1.40355 0.891651 0)
(1.45457 0.876983 0)
(3 3.6754e-09 0)
(3 2.42612e-08 0)
(3 8.02102e-08 0)
(3 2.35655e-07 0)
(3 5.9334e-07 0)
(3 1.53639e-06 0)
(2.99999 3.70603e-06 0)
(2.99998 9.26834e-06 0)
(2.99995 2.23639e-05 0)
(2.99989 5.49397e-05 0)
(2.99973 0.000134175 0)
(2.99935 0.000324813 0)
(2.99842 0.000803816 0)
(2.99616 0.00193015 0)
(2.9906 0.00482161 0)
(2.97689 0.0117026 0)
(2.94171 0.0297643 0)
(2.84785 0.077531 0)
(2.57872 0.218139 0)
(1.94268 0.600635 0)
(1.49496 0.871912 0)
(1.39444 0.91477 0)
(1.38951 0.925176 0)
(1.42195 0.91238 0)
(1.47116 0.889935 0)
(3 2.52319e-09 0)
(3 1.66043e-08 0)
(3 5.53072e-08 0)
(3 1.61124e-07 0)
(3 4.07443e-07 0)
(3 1.05327e-06 0)
(2.99999 2.5284e-06 0)
(2.99999 6.36643e-06 0)
(2.99997 1.51577e-05 0)
(2.99993 3.77455e-05 0)
(2.99982 9.03773e-05 0)
(2.99957 0.000222481 0)
(2.99895 0.000538586 0)
(2.99748 0.0013136 0)
(2.99378 0.00321539 0)
(2.98485 0.0078466 0)
(2.96215 0.0195118 0)
(2.90281 0.049694 0)
(2.73867 0.133548 0)
(2.27416 0.385868 0)
(1.68014 0.816689 0)
(1.4553 0.91643 0)
(1.42501 0.934202 0)
(1.43949 0.930683 0)
(1.48262 0.907673 0)
(3 1.75578e-09 0)
(3 1.1051e-08 0)
(3 3.81543e-08 0)
(3 1.07181e-07 0)
(3 2.80477e-07 0)
(3 7.02027e-07 0)
(3 1.73319e-06 0)
(2.99999 4.2579e-06 0)
(2.99998 1.03153e-05 0)
(2.99995 2.53811e-05 0)
(2.99989 6.09247e-05 0)
(2.99973 0.000150793 0)
(2.99933 0.000359776 0)
(2.99839 0.000894291 0)
(2.99604 0.00213838 0)
(2.99045 0.00531507 0)
(2.97642 0.0129452 0)
(2.94085 0.032697 0)
(2.84617 0.0853754 0)
(2.57424 0.240623 0)
(1.96807 0.637182 0)
(1.56701 0.887459 0)
(1.47679 0.931094 0)
(1.4697 0.940764 0)
(1.49747 0.927452 0)
(3 1.18932e-09 0)
(3 7.26116e-09 0)
(3 2.57003e-08 0)
(3 7.03365e-08 0)
(3 1.88322e-07 0)
(3 4.60952e-07 0)
(3 1.1579e-06 0)
(2.99999 2.79418e-06 0)
(2.99999 6.84597e-06 0)
(2.99997 1.66386e-05 0)
(2.99993 4.01519e-05 0)
(2.99982 9.87873e-05 0)
(2.99957 0.000234822 0)
(2.99896 0.000585411 0)
(2.99746 0.00137962 0)
(2.99385 0.00346029 0)
(2.98491 0.00823837 0)
(2.96258 0.0207016 0)
(2.90418 0.052124 0)
(2.74298 0.140154 0)
(2.29482 0.3998 0)
(1.74202 0.821966 0)
(1.53519 0.92519 0)
(1.50371 0.945009 0)
(1.51411 0.943441 0)
(3 7.86155e-10 0)
(3 4.74756e-09 0)
(3 1.68793e-08 0)
(3 4.59549e-08 0)
(3 1.23702e-07 0)
(3 3.00293e-07 0)
(3 7.61563e-07 0)
(3 1.81712e-06 0)
(2.99999 4.50974e-06 0)
(2.99998 1.08098e-05 0)
(2.99995 2.64624e-05 0)
(2.99989 6.40805e-05 0)
(2.99973 0.000155011 0)
(2.99935 0.000379433 0)
(2.99844 0.000910336 0)
(2.99616 0.00224845 0)
(2.99076 0.00540022 0)
(2.97724 0.0134316 0)
(2.94312 0.0333439 0)
(2.85275 0.0872495 0)
(2.59409 0.244212 0)
(2.02483 0.637521 0)
(1.64374 0.891904 0)
(1.55365 0.940167 0)
(1.5434 0.9509 0)
(3 4.91278e-10 0)
(3 3.14592e-09 0)
(3 1.06154e-08 0)
(3 3.04634e-08 0)
(3 7.79518e-08 0)
(3 1.97485e-07 0)
(3 4.8174e-07 0)
(3 1.18198e-06 0)
(3 2.87072e-06 0)
(2.99999 6.9417e-06 0)
(2.99997 1.69387e-05 0)
(2.99993 4.06014e-05 0)
(2.99983 9.96867e-05 0)
(2.99959 0.000237226 0)
(2.99902 0.000586006 0)
(2.99759 0.00139077 0)
(2.99422 0.00344337 0)
(2.9858 0.00827052 0)
(2.965 0.0205302 0)
(2.91083 0.051772 0)
(2.76263 0.13797 0)
(2.35177 0.390926 0)
(1.82456 0.808052 0)
(1.6135 0.926972 0)
(1.57699 0.951277 0)
(3 3.13368e-10 0)
(3 2.03242e-09 0)
(3 6.80038e-09 0)
(3 1.96726e-08 0)
(3 4.98713e-08 0)
(3 1.2745e-07 0)
(3 3.08306e-07 0)
(3 7.60997e-07 0)
(3 1.83658e-06 0)
(2.99999 4.4564e-06 0)
(2.99998 1.0849e-05 0)
(2.99996 2.60119e-05 0)
(2.9999 6.38412e-05 0)
(2.99975 0.000151963 0)
(2.9994 0.000375281 0)
(2.99854 0.000890261 0)
(2.99649 0.00220612 0)
(2.99145 0.00526611 0)
(2.97916 0.0130838 0)
(2.94802 0.0322704 0)
(2.86615 0.0839504 0)
(2.63404 0.232406 0)
(2.10826 0.608953 0)
(1.7265 0.891092 0)
(1.62678 0.948352 0)
(3 1.95475e-10 0)
(3 1.27439e-09 0)
(3 4.28229e-09 0)
(3 1.23146e-08 0)
(3 3.13666e-08 0)
(3 8.00326e-08 0)
(3 1.92286e-07 0)
(3 4.80122e-07 0)
(3 1.13487e-06 0)
(3 2.81972e-06 0)
(2.99999 6.65662e-06 0)
(2.99997 1.64563e-05 0)
(2.99994 3.89916e-05 0)
(2.99985 9.57544e-05 0)
(2.99963 0.000228799 0)
(2.99912 0.000556637 0)
(2.99786 0.0013427 0)
(2.99486 0.00325134 0)
(2.98745 0.00792477 0)
(2.96922 0.0194025 0)
(2.92234 0.0488598 0)
(2.79561 0.129079 0)
(2.44271 0.363484 0)
(1.93156 0.777739 0)
(1.69449 0.927492 0)
(3 1.28371e-10 0)
(3 7.733e-10 0)
(3 2.74618e-09 0)
(3 7.48182e-09 0)
(3 2.00411e-08 0)
(3 4.86354e-08 0)
(3 1.22942e-07 0)
(3 2.91078e-07 0)
(3 7.23682e-07 0)
(3 1.71425e-06 0)
(2.99999 4.21853e-06 0)
(2.99998 1.00559e-05 0)
(2.99996 2.45094e-05 0)
(2.99991 5.90086e-05 0)
(2.99978 0.000142296 0)
(2.99947 0.000345882 0)
(2.99874 0.000828025 0)
(2.99693 0.00202984 0)
(2.9926 0.00485559 0)
(2.98193 0.0119909 0)
(2.9553 0.0293887 0)
(2.88582 0.0756432 0)
(2.69139 0.206026 0)
(2.22491 0.547766 0)
(1.82166 0.879417 0)
(3 7.73444e-11 0)
(3 4.78447e-10 0)
(3 1.65435e-09 0)
(3 4.62581e-09 0)
(3 1.20688e-08 0)
(3 2.99189e-08 0)
(3 7.42177e-08 0)
(3 1.77798e-07 0)
(3 4.39101e-07 0)
(3 1.03771e-06 0)
(3 2.56635e-06 0)
(2.99999 6.0457e-06 0)
(2.99998 1.49366e-05 0)
(2.99995 3.52407e-05 0)
(2.99987 8.66396e-05 0)
(2.99969 0.00020576 0)
(2.99927 0.000502385 0)
(2.99821 0.00120322 0)
(2.99574 0.00292045 0)
(2.98962 0.00708026 0)
(2.97483 0.017268 0)
(2.93719 0.0432154 0)
(2.83781 0.1126 0)
(2.55886 0.315244 0)
(2.06068 0.717055 0)
(3 4.49304e-11 0)
(3 2.94314e-10 0)
(3 9.76168e-10 0)
(3 2.83907e-09 0)
(3 7.13928e-09 0)
(3 1.82741e-08 0)
(3 4.37858e-08 0)
(3 1.08407e-07 0)
(3 2.58356e-07 0)
(3 6.29326e-07 0)
(3 1.51025e-06 0)
(2.99999 3.63434e-06 0)
(2.99999 8.80475e-06 0)
(2.99997 2.09338e-05 0)
(2.99992 5.12493e-05 0)
(2.99982 0.000120691 0)
(2.99957 0.000297293 0)
(2.99894 0.0006975 0)
(2.99749 0.00172181 0)
(2.99387 0.00405798 0)
(2.98524 0.010019 0)
(2.96356 0.0241741 0)
(2.90804 0.0613784 0)
(2.75599 0.163011 0)
(2.36272 0.440901 0)
(3 2.6725e-11 0)
(3 1.75124e-10 0)
(3 5.84548e-10 0)
(3 1.68883e-09 0)
(3 4.26687e-09 0)
(3 1.09132e-08 0)
(3 2.60345e-08 0)
(3 6.4888e-08 0)
(3 1.52903e-07 0)
(3 3.77141e-07 0)
(3 8.91755e-07 0)
(3 2.17823e-06 0)
(2.99999 5.19144e-06 0)
(2.99998 1.25463e-05 0)
(2.99996 3.02451e-05 0)
(2.9999 7.22099e-05 0)
(2.99975 0.000176098 0)
(2.9994 0.000416126 0)
(2.99854 0.00102529 0)
(2.99653 0.00241258 0)
(2.99156 0.00597705 0)
(2.97962 0.0142769 0)
(2.94948 0.035787 0)
(2.87119 0.0913935 0)
(2.65185 0.251518 0)
(3 1.64143e-11 0)
(3 9.91355e-11 0)
(3 3.513e-10 0)
(3 9.5592e-10 0)
(3 2.55327e-09 0)
(3 6.19043e-09 0)
(3 1.54988e-08 0)
(3 3.68178e-08 0)
(3 9.03226e-08 0)
(3 2.14986e-07 0)
(3 5.20056e-07 0)
(3 1.24878e-06 0)
(3 2.9869e-06 0)
(2.99999 7.24639e-06 0)
(2.99997 1.71245e-05 0)
(2.99994 4.19697e-05 0)
(2.99985 9.83918e-05 0)
(2.99965 0.000242333 0)
(2.99915 0.000566596 0)
(2.99799 0.00139756 0)
(2.99512 0.0032839 0)
(2.98831 0.00808981 0)
(2.97138 0.0194195 0)
(2.92876 0.0488343 0)
(2.81494 0.12733 0)
(3 9.27924e-12 0)
(3 5.71758e-11 0)
(3 1.99064e-10 0)
(3 5.50626e-10 0)
(3 1.44592e-09 0)
(3 3.54331e-09 0)
(3 8.77916e-09 0)
(3 2.09659e-08 0)
(3 5.1083e-08 0)
(3 1.21534e-07 0)
(3 2.93936e-07 0)
(3 7.0135e-07 0)
(3 1.68393e-06 0)
(2.99999 4.03939e-06 0)
(2.99998 9.63207e-06 0)
(2.99996 2.32566e-05 0)
(2.99991 5.50451e-05 0)
(2.99979 0.000133486 0)
(2.9995 0.000314999 0)
(2.99879 0.000765013 0)
(2.99713 0.00180609 0)
(2.99303 0.00439025 0)
(2.9832 0.0104921 0)
(2.95861 0.0257527 0)
(2.8956 0.0648201 0)
(3 4.90224e-12 0)
(3 3.2132e-11 0)
(3 1.06638e-10 0)
(3 3.08291e-10 0)
(3 7.74389e-10 0)
(3 1.97023e-09 0)
(3 4.68033e-09 0)
(3 1.15482e-08 0)
(3 2.7097e-08 0)
(3 6.60758e-08 0)
(3 1.55343e-07 0)
(3 3.7469e-07 0)
(3 8.87441e-07 0)
(3 2.11258e-06 0)
(2.99999 5.06014e-06 0)
(2.99998 1.18738e-05 0)
(2.99994 2.87004e-05 0)
(2.99987 6.66374e-05 0)
(2.99968 0.000161797 0)
(2.99924 0.000373126 0)
(2.99814 0.000906697 0)
(2.99554 0.00208912 0)
(2.98912 0.00506736 0)
(2.97348 0.0118557 0)
(2.93351 0.0291819 0)
(3 2.70537e-12 0)
(3 1.59989e-11 0)
(3 5.75623e-11 0)
(3 1.53e-10 0)
(3 4.12397e-10 0)
(3 9.7527e-10 0)
(3 2.4495e-09 0)
(3 5.67099e-09 0)
(3 1.38348e-08 0)
(3 3.21408e-08 0)
(3 7.66522e-08 0)
(3 1.80354e-07 0)
(3 4.20099e-07 0)
(3 1.00372e-06 0)
(2.99999 2.27509e-06 0)
(2.99998 5.53697e-06 0)
(2.99996 1.22048e-05 0)
(2.9999 3.00154e-05 0)
(2.99976 6.48051e-05 0)
(2.99941 0.000159362 0)
(2.99856 0.000338956 0)
(2.9965 0.000823998 0)
(2.99132 0.00174876 0)
(2.97853 0.00413841 0)
(2.94529 0.00901195 0)
(3 1.29034e-12 0)
(3 7.88476e-12 0)
(3 2.75273e-11 0)
(3 7.50713e-11 0)
(3 1.96052e-10 0)
(3 4.70463e-10 0)
(3 1.15282e-09 0)
(3 2.65854e-09 0)
(3 6.39582e-09 0)
(3 1.45741e-08 0)
(3 3.448e-08 0)
(3 7.86413e-08 0)
(3 1.81887e-07 0)
(3 4.17882e-07 0)
(2.99999 9.41257e-07 0)
(2.99999 2.17473e-06 0)
(2.99997 4.74667e-06 0)
(2.99991 1.10639e-05 0)
(2.99979 2.31734e-05 0)
(2.99947 5.44023e-05 0)
(2.99869 0.000108228 0)
(2.99672 0.000254421 0)
(2.99187 0.000480165 0)
(2.97946 0.00108315 0)
(2.94699 0.00198782 0)
(3 5.19183e-13 0)
(3 3.96465e-12 0)
(3 1.15875e-11 0)
(3 3.76167e-11 0)
(3 8.25824e-11 0)
(3 2.29973e-10 0)
(3 4.80465e-10 0)
(3 1.26142e-09 0)
(3 2.64724e-09 0)
(3 6.58096e-09 0)
(3 1.42336e-08 0)
(3 3.32215e-08 0)
(3 7.55019e-08 0)
(3 1.5983e-07 0)
(2.99999 3.96847e-07 0)
(2.99999 7.32034e-07 0)
(2.99997 2.03104e-06 0)
(2.99992 3.1116e-06 0)
(2.99979 1.00469e-05 0)
(2.99949 1.21337e-05 0)
(2.99872 4.66699e-05 0)
(2.9968 4.38834e-05 0)
(2.992 0.000191418 0)
(2.97976 0.000173443 0)
(2.94748 0.000556542 0)
(3 2.99524e-13 0)
(3 1.63492e-12 0)
(3 5.90859e-12 0)
(3 1.54407e-11 0)
(3 4.23256e-11 0)
(3 9.14333e-11 0)
(3 2.51056e-10 0)
(3 4.83689e-10 0)
(3 1.38416e-09 0)
(3 2.42554e-09 0)
(3 7.42321e-09 0)
(3 1.19164e-08 0)
(3 3.80457e-08 0)
(3 5.88094e-08 0)
(2.99999 1.83784e-07 0)
(2.99999 2.92796e-07 0)
(2.99997 8.15395e-07 0)
(2.99992 1.46425e-06 0)
(2.99979 3.06158e-06 0)
(2.9995 7.28089e-06 0)
(2.99872 8.12618e-06 0)
(2.99684 3.36332e-05 0)
(2.99198 8.20697e-06 0)
(2.97976 9.21244e-05 0)
(2.94722 -5.36328e-05 0)
(3 1.76734e-13 0)
(3 6.38666e-13 0)
(3 3.44368e-12 0)
(3 5.7551e-12 0)
(3 2.42451e-11 0)
(3 3.75596e-11 0)
(3 1.37894e-10 0)
(3 2.25664e-10 0)
(3 7.16292e-10 0)
(3 1.33897e-09 0)
(3 3.553e-09 0)
(3 8.04328e-09 0)
(3 1.5882e-08 0)
(3 4.86976e-08 0)
(2.99999 6.27337e-08 0)
(2.99999 2.87363e-07 0)
(2.99997 1.93139e-07 0)
(2.99992 1.68003e-06 0)
(2.9998 2.59552e-07 0)
(2.99949 9.27593e-06 0)
(2.99875 -2.01427e-06 0)
(2.9968 4.6219e-05 0)
(2.99205 -1.51678e-05 0)
(2.97971 0.000167534 0)
(2.94718 2.04686e-05 0)
(3 6.06551e-14 0)
(3 5.09271e-13 0)
(3 1.33921e-12 0)
(3 4.94245e-12 0)
(3 9.92118e-12 0)
(3 3.03023e-11 0)
(3 6.59359e-11 0)
(3 1.69884e-10 0)
(3 4.27567e-10 0)
(3 9.20999e-10 0)
(3 2.62508e-09 0)
(3 5.1204e-09 0)
(3 1.54529e-08 0)
(3 2.78527e-08 0)
(2.99999 8.93693e-08 0)
(2.99999 1.43977e-07 0)
(2.99997 4.9485e-07 0)
(2.99992 7.43438e-07 0)
(2.9998 2.8202e-06 0)
(2.99949 3.49495e-06 0)
(2.99875 1.54187e-05 0)
(2.99683 1.89515e-05 0)
(2.99208 6.93983e-05 0)
(2.97979 0.000108686 0)
(2.94734 0.000302734 0)
(3 6.33848e-14 0)
(3 3.41237e-13 0)
(3 9.04689e-13 0)
(3 3.42173e-12 0)
(3 7.04803e-12 0)
(3 1.86002e-11 0)
(3 5.48846e-11 0)
(3 8.74043e-11 0)
(3 3.97458e-10 0)
(3 4.10738e-10 0)
(3 2.65156e-09 0)
(3 1.94554e-09 0)
(3 1.71426e-08 0)
(3 1.0128e-08 0)
(2.99999 1.03736e-07 0)
(2.99999 6.04541e-08 0)
(2.99997 5.89065e-07 0)
(2.99992 4.43014e-07 0)
(2.9998 3.06668e-06 0)
(2.9995 3.18428e-06 0)
(2.99876 1.51579e-05 0)
(2.99685 2.1542e-05 0)
(2.99212 6.81061e-05 0)
(2.9799 0.000120733 0)
(2.94755 0.00032107 0)
(3 2.53715e-14 0)
(3 1.28749e-13 0)
(3 6.8398e-13 0)
(3 1.0785e-12 0)
(3 4.75874e-12 0)
(3 8.66598e-12 0)
(3 2.69856e-11 0)
(3 5.99119e-11 0)
(3 1.49181e-10 0)
(3 4.09533e-10 0)
(3 8.67732e-10 0)
(3 2.69404e-09 0)
(3 5.37489e-09 0)
(3 1.70876e-08 0)
(2.99999 3.49524e-08 0)
(2.99999 1.12547e-07 0)
(2.99997 2.17971e-07 0)
(2.99992 6.74039e-07 0)
(2.9998 1.32176e-06 0)
(2.9995 3.85827e-06 0)
(2.99877 6.99379e-06 0)
(2.99687 1.98498e-05 0)
(2.99216 4.10804e-05 0)
(2.98 9.75519e-05 0)
(2.94775 0.000219769 0)
(3 2.80469e-15 0)
(3 -4.29382e-15 0)
(3 3.21784e-13 0)
(3 -2.73295e-13 0)
(3 2.25174e-12 0)
(3 -2.83344e-14 0)
(3 1.00627e-11 0)
(3 1.02877e-11 0)
(3 3.99581e-11 0)
(3 1.0937e-10 0)
(3 1.52971e-10 0)
(3 9.28498e-10 0)
(3 7.43341e-10 0)
(3 6.46455e-09 0)
(2.99999 5.94853e-09 0)
(2.99999 4.91084e-08 0)
(2.99997 3.75314e-08 0)
(2.99992 3.06737e-07 0)
(2.9998 3.16732e-07 0)
(2.9995 1.77407e-06 0)
(2.99877 1.20897e-06 0)
(2.99688 9.66866e-06 0)
(2.99219 9.27657e-06 0)
(2.98005 4.13935e-05 0)
(2.94788 6.90315e-05 0)
(1.20104 1.03689 0)
(1.34039 0.775846 0)
(0.738652 0.429098 0)
(-0.0985324 0.32843 0)
(-0.252227 0.0365466 0)
(-0.457568 0.00414544 0)
(-0.599429 -0.0160587 0)
(-0.664718 -0.0178788 0)
(-0.702986 0.00222518 0)
(-0.750074 0.0196512 0)
(-0.810182 0.0231298 0)
(-0.868405 0.0194789 0)
(-0.918501 0.0131971 0)
(-0.964447 0.00882695 0)
(-1.01155 0.00738316 0)
(-1.06034 0.00696451 0)
(-1.10825 0.00675451 0)
(-1.15221 0.00617381 0)
(-1.1911 0.00478415 0)
(-1.22808 0.00296676 0)
(-1.26725 0.0025275 0)
(-1.30012 0.00479839 0)
(-1.31846 0.00502295 0)
(-1.327 0.00381835 0)
(-1.32606 0.00213386 0)
(-1.30654 -0.000619437 0)
(-1.26218 -0.00493361 0)
(-1.19733 -0.0102701 0)
(-1.11828 -0.0154621 0)
(-1.03222 -0.0194794 0)
(-0.944166 -0.0222785 0)
(-0.856888 -0.0240477 0)
(-0.771851 -0.0251803 0)
(-0.690118 -0.0258059 0)
(-0.612607 -0.0260696 0)
(-0.539361 -0.0260952 0)
(-0.469646 -0.0263528 0)
(-0.403218 -0.0268791 0)
(-0.338591 -0.0283205 0)
(-0.276361 -0.0292487 0)
(-0.216675 -0.0293367 0)
(-0.15928 -0.0294646 0)
(-0.10395 -0.029812 0)
(-0.0506553 -0.0310336 0)
(0.00415506 -0.0297225 0)
(0.0555041 -0.0264973 0)
(0.103043 -0.0246681 0)
(0.148379 -0.0234358 0)
(0.191514 -0.0223377 0)
(0.232954 -0.0213545 0)
(0.272432 -0.0203416 0)
(0.30955 -0.0193434 0)
(0.345966 -0.0186906 0)
(0.383108 -0.0184481 0)
(0.419764 -0.0178587 0)
(0.454925 -0.0170536 0)
(0.488795 -0.0162801 0)
(0.521583 -0.0155575 0)
(0.553508 -0.0149269 0)
(0.584616 -0.0143356 0)
(0.614978 -0.0137772 0)
(0.644636 -0.0132391 0)
(0.673631 -0.0127326 0)
(0.701984 -0.0122468 0)
(0.729737 -0.0117842 0)
(0.756921 -0.0113404 0)
(0.783563 -0.0109183 0)
(0.809687 -0.0105105 0)
(0.835326 -0.010121 0)
(0.860501 -0.00974379 0)
(0.885235 -0.00938209 0)
(0.909549 -0.00902939 0)
(0.933466 -0.00868866 0)
(0.957003 -0.00835442 0)
(0.980179 -0.00802896 0)
(1.00301 -0.00770781 0)
(1.0255 -0.00739233 0)
(1.04767 -0.00707966 0)
(1.06952 -0.00677061 0)
(1.09106 -0.00646341 0)
(1.11228 -0.00615869 0)
(1.13319 -0.00585599 0)
(1.15378 -0.00555569 0)
(1.17405 -0.00525794 0)
(1.19401 -0.00496221 0)
(1.21364 -0.00466863 0)
(1.23294 -0.00437621 0)
(1.2519 -0.00408483 0)
(1.27051 -0.00379248 0)
(1.28875 -0.00349806 0)
(1.30658 -0.00319721 0)
(1.32394 -0.00288648 0)
(1.34077 -0.00255771 0)
(1.35695 -0.00220551 0)
(1.37231 -0.00181376 0)
(1.38661 -0.00136356 0)
(1.39949 -0.000856541 0)
(1.41049 -0.000277057 0)
(1.41872 0.000423591 0)
(1.42473 0.0012532 0)
(1.2672 0.942752 0)
(1.37677 0.647864 0)
(1.15961 0.390351 0)
(0.692454 0.384059 0)
(0.575832 0.316756 0)
(0.428629 0.23876 0)
(0.234374 0.176232 0)
(0.052911 0.103407 0)
(-0.173729 0.0519086 0)
(-0.307279 0.0560454 0)