/*--------------------------------*- C++ -*----------------------------------*\
  =========                 |
  \\      /  F ield         | OpenFOAM: The Open Source CFD Toolbox
   \\    /   O peration     | Website:  https://openfoam.org
    \\  /    A nd           | Version:  13
     \\/     M anipulation  |
\*---------------------------------------------------------------------------*/
FoamFile
{
    format      ascii;
    class       volScalarField;
    location    "3.5";
    object      p;
}
// * * * * * * * * * * * * * * * * * * * * * * * * * * * * * * * * * * * * * //

dimensions      [1 -1 -2 0 0 0 0];

internalField   nonuniform List<scalar> 
5250
(
1
1.00003
1.00008
1.00022
1.0005
1.00134
1.00304
1.00813
1.01866
1.04899
1.11814
1.30961
1.82954
3.36486
7.86279
11.7452
11.3047
11.0442
11.1291
11.3617
11.5922
11.7315
11.8381
11.9203
11.9833
1.00001
1.00003
1.00008
1.00019
1.00053
1.00121
1.00325
1.00742
1.01953
1.0462
1.11886
1.30133
1.81675
3.31983
7.74713
11.7591
11.3044
11.0343
11.1202
11.3537
11.5841
11.7239
11.832
11.9156
11.9801
1
1.00003
1.00007
1.0002
1.00048
1.00126
1.00291
1.00768
1.01781
1.04635
1.11229
1.29293
1.78262
3.22666
7.48774
11.7867
11.3005
11.0044
11.0887
11.32
11.5486
11.6866
11.7943
11.8773
11.9423
1
1.00002
1.00007
1.00018
1.00049
1.00111
1.00297
1.00674
1.01804
1.04183
1.10905
1.27306
1.73879
3.08353
7.08978
11.8253
11.2955
10.9551
11.0346
11.2591
11.485
11.6194
11.7242
11.8055
11.8719
1
1.00002
1.00006
1.00018
1.00042
1.00112
1.00254
1.0068
1.01564
1.04083
1.09836
1.25557
1.67653
2.9072
6.5707
11.8553
11.2886
10.8898
10.9609
11.1733
11.3958
11.5247
11.6244
11.7028
11.7718
1
1.00002
1.00006
1.00016
1.0004
1.00097
1.0025
1.00582
1.01519
1.03575
1.09195
1.22938
1.61204
2.7041
5.95561
11.8218
11.2646
10.8081
10.8672
11.0599
11.2756
11.3955
11.4859
11.5576
11.6285
1
1.00002
1.00006
1.00014
1.00038
1.00086
1.00231
1.00524
1.01397
1.03232
1.08393
1.20729
1.55113
2.52433
5.41922
11.615
11.1714
10.7046
10.7505
10.9144
11.1163
11.2218
11.2954
11.3515
11.419
1
1.00002
1.00005
1.00014
1.00032
1.00086
1.00194
1.00517
1.01192
1.03094
1.07434
1.19115
1.49677
2.37669
4.98471
11.1247
10.9569
10.5975
10.6188
10.7341
10.9111
10.9935
11.0377
11.0593
11.1025
1
1.00002
1.00005
1.00012
1.00031
1.00072
1.00191
1.00434
1.01156
1.0267
1.0695
1.17029
1.44977
2.23273
4.55366
10.4123
10.699
10.5227
10.4721
10.5311
10.6581
10.702
10.6935
10.6428
10.5924
1
1.00001
1.00004
1.00011
1.00026
1.00069
1.00158
1.00419
1.00972
1.02507
1.06041
1.15428
1.39739
2.08948
4.11769
9.52842
10.5477
10.4235
10.2916
10.3118
10.3642
10.3482
10.2595
10.0399
9.69837
1
1.00001
1.00004
1.0001
1.00023
1.00059
1.00145
1.00352
1.00891
1.02131
1.05423
1.13351
1.34768
1.93928
3.675
8.48388
10.4402
10.3253
10.1037
10.0705
10.0468
9.95367
9.69617
9.09434
7.53377
1
1.00001
1.00003
1.00008
1.00021
1.00049
1.00129
1.00294
1.00779
1.01793
1.04695
1.11286
1.29516
1.7854
3.21873
7.28551
10.3603
10.2276
9.93532
9.82288
9.73468
9.54068
9.12493
8.29187
6.64139
1
1.00001
1.00003
1.00007
1.00016
1.00044
1.00099
1.00263
1.00605
1.01573
1.03731
1.09508
1.23852
1.634
2.75855
5.98193
10.2398
10.115
9.79513
9.58266
9.4274
9.14962
8.63143
7.7687
6.42315
1
1.00001
1.00002
1.00005
1.00014
1.00033
1.00087
1.00198
1.00524
1.01195
1.03138
1.07406
1.19139
1.49161
2.3442
4.74725
9.89076
9.89493
9.6829
9.36221
9.13237
8.80754
8.27157
7.47172
6.3951
1
1.00001
1.00002
1.00005
1.00011
1.00029
1.00066
1.00172
1.00405
1.01019
1.02484
1.06147
1.15409
1.39733
2.07874
4.0291
8.95046
9.62486
9.47811
9.15928
8.86996
8.52097
8.00729
7.29154
6.39352
1
1
1.00001
1.00004
1.00009
1.00023
1.00054
1.00139
1.00322
1.00842
1.01948
1.05056
1.12212
1.31826
1.8472
3.37334
7.47138
9.35607
9.26507
9.00303
8.65257
8.28486
7.80171
7.16304
6.39008
1
1
1.00001
1.00003
1.00007
1.00017
1.00045
1.00102
1.00271
1.00612
1.0163
1.03762
1.09771
1.24178
1.64509
2.77095
5.91002
9.15766
9.11722
8.90016
8.48608
8.09338
7.63544
7.06123
6.38311
1
1
1.00001
1.00002
1.00006
1.00013
1.00034
1.00077
1.00205
1.00462
1.01223
1.0281
1.07273
1.17665
1.46205
2.23171
4.33774
8.7135
8.97636
8.79635
8.38753
7.94727
7.50014
6.97759
6.3746
1
1
1.00001
1.00002
1.00004
1.0001
1.00026
1.00059
1.00156
1.00352
1.00931
1.02138
1.05539
1.13357
1.34724
1.92117
3.53914
7.6045
8.72037
8.60578
8.29043
7.82867
7.38736
6.90603
6.36447
1
1
1
1.00001
1.00003
1.00008
1.00019
1.00044
1.00116
1.00264
1.00697
1.01593
1.04164
1.09896
1.25668
1.66902
2.83464
5.95845
8.456
8.41729
8.20415
7.756
7.29989
6.84467
6.35296
1
1
1
1.00001
1.00002
1.00006
1.00013
1.00034
1.0008
1.00196
1.00487
1.01155
1.02925
1.0699
1.17735
1.45065
2.19513
4.14841
7.98789
8.2868
8.12589
7.73492
7.24474
6.79775
6.34367
1
1
1
1.00001
1.00002
1.00004
1.0001
1.00024
1.00057
1.00147
1.00335
1.0088
1.02012
1.05234
1.1247
1.32375
1.84588
3.2924
6.85979
8.05224
7.96477
7.69181
7.21624
6.7678
6.33905
1
1
1
1
1.00001
1.00003
1.00007
1.00017
1.00041
1.00104
1.00239
1.00626
1.01427
1.03728
1.08782
1.22679
1.58221
2.56822
5.15294
7.70597
7.74861
7.60093
7.22904
6.76872
6.34169
1
1
1
1
1.00001
1.00002
1.00005
1.00012
1.00028
1.00073
1.00163
1.0043
1.00967
1.02541
1.05879
1.1508
1.376
1.98538
3.56214
6.97444
7.60517
7.50603
7.22632
6.7837
6.35322
1
1
1
1
1.00001
1.00001
1.00003
1.00008
1.00019
1.00049
1.00113
1.00293
1.00663
1.0174
1.04001
1.10288
1.25217
1.66138
2.745
5.48893
7.35009
7.34178
7.20028
6.84261
6.38361
1
1
1
1
1
1.00001
1.00002
1.00005
1.00014
1.00031
1.00079
1.00181
1.00463
1.01085
1.02691
1.06521
1.16144
1.40787
2.0483
3.64964
6.8091
7.2425
7.14645
6.88782
6.4448
1
1
1
1
1
1.00001
1.00001
1.00004
1.00009
1.00021
1.00053
1.0012
1.00312
1.00704
1.01845
1.04233
1.10857
1.26558
1.69291
2.80772
5.56582
7.02028
7.01323
6.87725
6.55183
1
1
1
1
1
1
1.00001
1.00002
1.00005
1.00014
1.00032
1.00083
1.00189
1.00484
1.01129
1.0281
1.06788
1.16823
1.42482
2.09033
3.74983
6.50715
6.90316
6.82583
6.60225
1
1
1
1
1
1
1.00001
1.00002
1.00004
1.00009
1.00022
1.00051
1.0013
1.00294
1.00764
1.01735
1.04471
1.10522
1.26886
1.68023
2.76109
5.33653
6.66846
6.69142
6.58436
1
1
1
1
1
1
1
1.00001
1.00002
1.00006
1.00013
1.00034
1.00076
1.00197
1.00448
1.01142
1.02664
1.06639
1.16115
1.40665
2.02973
3.55386
6.13314
6.5783
6.52613
1
1
1
1
1
1
1
1.00001
1.00001
1.00004
1.00008
1.00021
1.00049
1.0012
1.0029
1.00689
1.01714
1.04044
1.10097
1.24708
1.63165
2.60338
4.93345
6.32375
6.4054
1
1
1
1
1
1
1
1
1.00001
1.00002
1.00005
1.00012
1.00031
1.0007
1.00179
1.0041
1.01032
1.02417
1.05957
1.14401
1.3591
1.89465
3.16948
5.73731
6.28597
1
1
1
1
1
1
1
1
1.00001
1.00001
1.00003
1.00008
1.00019
1.00043
1.0011
1.00248
1.00643
1.01445
1.0374
1.08644
1.22012
1.54549
2.38824
4.41969
5.97331
1
1
1
1
1
1
1
1
1
1.00001
1.00002
1.00004
1.00011
1.00027
1.00063
1.00156
1.00357
1.00912
1.02069
1.05266
1.12358
1.31134
1.76845
2.87918
5.23907
1
1
1
1
1
1
1
1
1
1
1.00001
1.00003
1.00007
1.00016
1.00038
1.00092
1.00213
1.00542
1.0122
1.03138
1.07216
1.18257
1.4463
2.12028
3.71856
1
1
1
1
1
1
1
1
1
1
1.00001
1.00002
1.00004
1.00009
1.00023
1.00051
1.00132
1.00293
1.00759
1.01697
1.04357
1.10088
1.25399
1.62369
2.53179
1
1
1
1
1
1
1
1
1
1
1
1.00001
1.00002
1.00005
1.00012
1.00031
1.00069
1.00178
1.00398
1.01014
1.02312
1.05749
1.13601
1.33567
1.81213
1
1
1
1
1
1
1
1
1
1
1
1.00001
1.00001
1.00003
1.00007
1.00017
1.00041
1.001
1.00231
1.00583
1.01312
1.03354
1.07687
1.1937
1.46923
1
1
1
1
1
1
1
1
1
1
1
1
1.00001
1.00002
1.00004
1.0001
1.00023
1.00057
1.00128
1.00327
1.0073
1.01869
1.04231
1.10645
1.25308
1
1
1
1
1
1
1
1
1
1
1
1
1
1.00001
1.00002
1.00005
1.00013
1.00029
1.00075
1.00168
1.00422
1.00969
1.0236
1.05611
1.13483
1
1
1
1
1
1
1
1
1
1
1
1
1
1.00001
1.00001
1.00003
1.00007
1.00017
1.00041
1.00096
1.00226
1.00556
1.01271
1.03188
1.07336
1
1
1
1
1
1
1
1
1
1
1
1
1
1
1.00001
1.00002
1.00004
1.00009
1.00021
1.00054
1.0012
1.00306
1.0068
1.01728
1.03922
1
1
1
1
1
1
1
1
1
1
1
1
1
1
1
1.00001
1.00002
1.00005
1.00012
1.00027
1.00067
1.00157
1.0037
1.009
1.02068
1
1
1
1
1
1
1
1
1
1
1
1
1
1
1
1
1.00001
1.00003
1.00006
1.00015
1.00037
1.00082
1.00208
1.00461
1.01174
1
1
1
1
1
1
1
1
1
1
1
1
1
1
1
1
1.00001
1.00002
1.00003
1.00008
1.0002
1.00046
1.00115
1.00256
1.00648
1
1
1
1
1
1
1
1
1
1
1
1
1
1
1
1
1
1.00001
1.00002
1.00005
1.00012
1.00029
1.00066
1.00165
1.00384
1
1
1
1
1
1
1
1
1
1
1
1
1
1
1
1
1
1.00001
1.00002
1.00003
1.00009
1.0002
1.00052
1.00118
1.00304
1
1
1
1
1
1
1
1
1
1
1
1
1
1
1
1
1
1
1.00001
1.00003
1.00008
1.00017
1.00046
1.00103
1.00277
1
1
1
1
1
1
1
1
1
1
1
1
1
1
1
1
1
1
1.00001
1.00003
1.00007
1.00017
1.00043
1.00101
1.00265
1
1
1
1
1
1
1
1
1
1
1
1
1
1
1
1
1
1
1.00001
1.00003
1.00007
1.00018
1.0004
1.00107
1.00246
3.02536
1.53098
1.03676
0.940816
0.96796
1.05182
1.22775
1.365
1.40657
1.40477
1.39896
1.39697
1.39838
1.40299
1.4131
1.4273
1.44144
1.46297
1.50763
1.60324
1.81145
2.26667
3.05384
3.43689
3.49937
3.5101
3.46219
3.40479
3.36038
3.33289
3.32088
3.31789
3.3253
3.35716
3.42443
3.53106
3.66686
3.81658
3.96619
4.10544
4.2257
4.32525
4.40324
4.47139
4.52372
4.55805
4.57805
4.58729
4.58686
4.5817
4.56775
4.54409
4.5158
4.48492
4.45044
4.41363
4.374
4.33283
4.28959
4.24525
4.19929
4.15247
4.10439
4.05564
4.00602
3.95601
3.90546
3.85482
3.80395
3.75321
3.7025
3.65205
3.60179
3.5519
3.50233
3.45319
3.40447
3.35625
3.30853
3.26132
3.21464
3.16848
3.12286
3.07775
3.03319
2.98915
2.94568
2.90277
2.86047
2.81876
2.77773
2.73738
2.69783
2.65908
2.62155
2.58538
2.55119
2.52005
2.49371
2.47734
3.72925
2.33678
1.74332
1.49354
1.37783
1.29515
1.27815
1.28656
1.31001
1.35814
1.40341
1.42258
1.42241
1.42143
1.42178
1.42422
1.43171
1.44993
1.48978
1.57503
1.75615
2.14557
2.94698
3.43532
3.51677
3.49941
3.44902
3.3936
3.37011
3.34928
3.32539
3.3134
3.31184
3.33683
3.40239
3.50897
3.64183
3.7886
3.93631
4.08006
4.2029
4.30386
4.38482
4.45348
4.50596
4.54249
4.56384
4.57454
4.57469
4.5715
4.56067
4.53772
4.5084
4.47766
4.44411
4.40798
4.36887
4.3279
4.28491
4.2407
4.19499
4.14833
4.10053
4.05199
4.00266
3.95285
3.90257
3.8521
3.80145
3.75083
3.70027
3.64991
3.59977
3.54994
3.50046
3.45137
3.40273
3.35454
3.30686
3.25967
3.21303
3.1669
3.12132
3.07624
3.03174
2.98774
2.94434
2.90147
2.85924
2.81753
2.77659
2.73632
2.69688
2.65828
2.62066
2.5843
2.54987
2.51836
2.49134
2.47461
4.55893
3.26113
2.44474
1.92782
1.59372
1.38851
1.26816
1.2556
1.26333
1.28567
1.33213
1.37565
1.40449
1.41817
1.42208
1.42405
1.42875
1.44019
1.46685
1.52712
1.65944
1.95427
2.59937
3.33155
3.49427
3.48294
3.45119
3.40107
3.36781
3.33902
3.31889
3.30947
3.31592
3.34261
3.40135
3.49666
3.62684
3.77072
3.91726
4.05734
4.17849
4.2798
4.3615
4.42924
4.48163
4.51962
4.543
4.55523
4.55673
4.5546
4.54661
4.52805
4.49829
4.46725
4.43434
4.399
4.36071
4.32023
4.27769
4.23373
4.18837
4.14198
4.09455
4.04634
3.9974
3.94793
3.89802
3.84784
3.79748
3.74708
3.69674
3.64653
3.59655
3.54684
3.49748
3.44848
3.39992
3.35179
3.30418
3.25703
3.21045
3.16436
3.11885
3.07385
3.02948
2.98559
2.94227
2.89952
2.85742
2.81592
2.77507
2.73484
2.6954
2.65676
2.61912
2.58266
2.54797
2.516
2.4881
2.47048
5.01765
3.84067
2.97022
2.3648
1.95849
1.68579
1.51408
1.40612
1.3431
1.3273
1.331
1.34322
1.3692
1.39933
1.42134
1.43432
1.43919
1.44621
1.46197
1.49886
1.58409
1.77479
2.18744
3.03424
3.43271
3.4774
3.46188
3.42414
3.3835
3.35915
3.34887
3.35073
3.36322
3.3943
3.45128
3.53226
3.6395
3.76408
3.89188
4.02112
4.13995
4.24214
4.32556
4.39369
4.44686
4.48636
4.51216
4.52657
4.53025
4.52895
4.5236
4.51022
4.48319
4.45184
4.41896
4.38431
4.34708
4.30749
4.26574
4.22236
4.17758
4.13169
4.08481
4.03712
3.98873
3.93976
3.89036
3.84061
3.79068
3.74062
3.69061
3.64067
3.59095
3.54144
3.49228
3.44343
3.39502
3.347
3.2995
3.25246
3.206
3.16004
3.11467
3.06979
3.0256
2.98194
2.93892
2.89633
2.85437
2.81298
2.77226
2.73215
2.69281
2.65422
2.61659
2.58004
2.54506
2.51258
2.48371
2.46489
5.29435
4.26115
3.42257
2.78938
2.32671
1.9902
1.74577
1.57071
1.44824
1.37167
1.33225
1.33253
1.33669
1.348
1.37116
1.39365
1.4109
1.42518
1.43835
1.46497
1.5214
1.64354
1.9112
2.48782
3.24534
3.45574
3.46916
3.45676
3.42543
3.40999
3.41435
3.43243
3.47616
3.53585
3.58813
3.64192
3.70773
3.78593
3.87466
3.96997
4.07979
4.18522
4.27476
4.34726
4.40309
4.44458
4.47277
4.4898
4.49636
4.49579
4.4926
4.4836
4.46381
4.43285
4.39977
4.36555
4.32934
4.2909
4.25028
4.20784
4.16389
4.11873
4.07257
4.02555
3.97783
3.92948
3.88068
3.83147
3.78206
3.73244
3.68284
3.63325
3.58385
3.53461
3.48569
3.43704
3.38882
3.34097
3.29362
3.24677
3.20047
3.15471
3.10964
3.0651
3.02111
2.97762
2.93474
2.89236
2.8506
2.80938
2.76883
2.72888
2.68968
2.65117
2.61357
2.57695
2.54173
2.50877
2.47903
2.45886
5.48066
4.5837
3.80457
3.17428
2.68259
2.30523
2.01752
1.80061
1.63831
1.52154
1.43758
1.38431
1.3563
1.35639
1.35954
1.3684
1.38675
1.40767
1.42836
1.44839
1.4845
1.56101
1.72383
2.07296
2.80493
3.35
3.46679
3.48259
3.47972
3.48404
3.50678
3.56739
3.68374
3.76522
3.80267
3.82247
3.83601
3.8463
3.87052
3.92184
3.99664
4.09876
4.19893
4.28286
4.34698
4.39349
4.4254
4.44563
4.45553
4.45624
4.45468
4.44918
4.43601
4.40938
4.37706
4.34308
4.30758
4.27021
4.23082
4.18956
4.1467
4.10248
4.05718
4.01093
3.96396
3.91632
3.8682
3.81963
3.77081
3.72174
3.67264
3.62348
3.57446
3.52555
3.47693
3.42854
3.38056
3.33294
3.28574
3.23917
3.19331
3.14792
3.10317
3.05889
3.01517
2.9719
2.92925
2.88709
2.84556
2.80456
2.76422
2.72447
2.68544
2.64707
2.60954
2.57292
2.53755
2.50421
2.47376
2.4522
5.61105
4.83029
4.11799
3.50974
3.01031
2.60896
2.2899
2.03794
1.8394
1.68477
1.56471
1.47678
1.41275
1.37518
1.3584
1.359
1.36242
1.3708
1.38775
1.40711
1.43353
1.48317
1.58466
1.79596
2.23078
3.06326
3.40872
3.48733
3.52138
3.55992
3.64036
3.8028
3.98594
4.07866
4.08589
4.07265
4.03046
3.94423
3.90018
3.90742
3.9345
3.99421
4.09353
4.19009
4.26857
4.32664
4.36693
4.39277
4.40692
4.41128
4.41047
4.40719
4.39876
4.38047
4.35065
4.31733
4.28244
4.24602
4.20787
4.16791
4.12631
4.08323
4.03897
3.99367
3.94758
3.90076
3.85343
3.80559
3.75746
3.70902
3.66049
3.61184
3.56329
3.51477
3.4665
3.41843
3.37074
3.32344
3.27691
3.23073
3.18521
3.14017
3.09572
3.0517
3.00826
2.96526
2.92287
2.88097
2.8397
2.79896
2.75888
2.71936
2.68055
2.64236
2.60498
2.56841
2.53298
2.49934
2.46837
2.44543
5.70412
5.01794
4.37052
3.79486
3.30248
2.89152
2.55315
2.27708
2.05262
1.8714
1.72582
1.61089
1.52156
1.4552
1.40753
1.3798
1.36771
1.36851
1.37237
1.38177
1.40113
1.43255
1.495
1.6225
1.89187
2.4567
3.18905
3.45173
3.55832
3.65894
3.84081
4.14424
4.39242
4.4573
4.44237
4.38407
4.24843
4.06945
3.95278
3.91123
3.91707
3.93873
3.98767
4.07476
4.16321
4.23685
4.29148
4.3284
4.35025
4.36035
4.3609
4.35948
4.35463
4.34312
4.31958
4.28809
4.25412
4.21861
4.18157
4.14286
4.10256
4.06073
4.01763
3.97339
3.92829
3.88239
3.83594
3.78892
3.74156
3.69383
3.64595
3.59787
3.54983
3.50175
3.45389
3.4062
3.35907
3.3124
3.26634
3.22069
3.17557
3.13088
3.08673
3.04302
2.9999
2.95722
2.91515
2.87357
2.83262
2.79218
2.75241
2.71318
2.67464
2.63668
2.5995
2.56304
2.52764
2.49379
2.4625
2.43822
5.77196
5.16206
4.5736
4.03438
3.55817
3.1481
2.80045
2.50893
2.26571
2.06394
1.89689
1.75957
1.64738
1.55724
1.48684
1.43367
1.39697
1.37571
1.37076
1.37242
1.37874
1.39442
1.42909
1.50398
1.66142
1.99234
2.68098
3.29763
3.55455
3.78315
4.13861
4.61796
4.88422
4.88459
4.84258
4.71542
4.45535
4.21593
4.04892
3.95305
3.91694
3.91997
3.935
3.97206
4.04521
4.12328
4.19304
4.24621
4.28074
4.2998
4.30697
4.30641
4.30372
4.2966
4.28112
4.25384
4.2219
4.18761
4.15169
4.11419
4.0752
4.0347
3.99291
3.94989
3.90597
3.86115
3.81573
3.76966
3.72319
3.67625
3.62911
3.58169
3.53424
3.48667
3.43941
3.39248
3.34607
3.30003
3.25448
3.20929
3.16459
3.12026
3.07649
3.03314
2.99039
2.9481
2.90642
2.86521
2.82464
2.78455
2.74512
2.70621
2.66797
2.6303
2.59334
2.55708
2.52178
2.48784
2.45639
2.43094
5.8225
5.27484
4.73813
4.23542
3.78005
3.37795
3.02848
2.72859
2.47276
2.25591
2.07241
1.91788
1.78818
1.68005
1.59127
1.5192
1.46371
1.42129
1.39235
1.37786
1.37865
1.38391
1.39966
1.43815
1.52519
1.71217
2.10282
2.90099
3.48713
3.92845
4.5938
5.21932
5.39336
5.36119
5.24358
4.98115
4.64919
4.37892
4.17922
4.04146
3.95629
3.91604
3.91478
3.92182
3.94695
4.00135
4.0726
4.1398
4.19121
4.22422
4.24282
4.24739
4.24635
4.24246
4.23307
4.21359
4.18494
4.15245
4.11788
4.08166
4.04404
4.00494
3.96457
3.92295
3.88037
3.83684
3.7926
3.74762
3.70215
3.65612
3.60979
3.56309
3.51628
3.46955
3.42317
3.37707
3.33138
3.28596
3.24096
3.19625
3.15201
3.10813
3.0648
3.02188
2.97956
2.93769
2.89644
2.85565
2.8155
2.77582
2.73678
2.69824
2.66036
2.62299
2.58633
2.55028
2.51516
2.4812
2.44974
2.42332
5.86229
5.36536
4.87337
4.40501
3.97252
3.58253
3.23669
2.93373
2.6705
2.44303
2.24724
2.07908
1.9352
1.81226
1.70809
1.6202
1.54754
1.48832
1.44246
1.40915
1.386
1.38645
1.39173
1.40933
1.45462
1.55972
1.78925
2.26925
3.23659
4.03466
5.23513
5.87521
5.88491
5.80823
5.59023
5.19129
4.83774
4.55418
4.33146
4.16005
4.03455
3.95139
3.90855
3.89635
3.89919
3.91445
3.9509
4.01443
4.07549
4.1244
4.15869
4.17651
4.18091
4.17963
4.17499
4.16406
4.14187
4.11245
4.0797
4.04496
4.0088
3.97121
3.93242
3.8924
3.8514
3.80936
3.76652
3.7228
3.67847
3.63346
3.58802
3.54216
3.49637
3.45067
3.40526
3.36
3.31504
3.27026
3.22585
3.18169
3.13799
3.09464
3.05182
3.0094
2.96758
2.92619
2.88542
2.8451
2.80541
2.76617
2.72757
2.68943
2.65193
2.61491
2.57858
2.5428
2.50793
2.47402
2.44267
2.41552
5.89446
5.4391
4.98608
4.54952
4.14018
3.76469
3.42584
3.12386
2.857
2.62272
2.4178
2.23922
2.08378
1.94899
1.83221
1.73172
1.64568
1.57293
1.5127
1.46353
1.42781
1.40202
1.40276
1.40977
1.4332
1.49391
1.63662
1.95454
2.64131
4.00157
5.91632
6.43898
6.37972
6.18934
5.79911
5.38107
5.02455
4.73065
4.48888
4.29223
4.1365
4.0189
3.93733
3.89036
3.87
3.86584
3.87308
3.89579
3.94348
3.9985
4.04699
4.08129
4.10137
4.10703
4.10588
4.10123
4.08997
4.06708
4.03745
4.00455
3.96989
3.9338
3.89664
3.85836
3.81914
3.7788
3.73752
3.69524
3.65218
3.60828
3.56391
3.51925
3.47465
3.43004
3.38559
3.34117
3.29698
3.25291
3.20915
3.16563
3.12253
3.07975
3.03749
2.99563
2.95435
2.9135
2.87326
2.83345
2.79426
2.75551
2.71737
2.67967
2.64259
2.60597
2.57
2.53453
2.49995
2.46617
2.43499
2.40732
5.92217
5.50135
5.08235
4.67494
4.28793
3.92781
3.59788
3.29946
3.03179
2.79354
2.58219
2.39569
2.23111
2.08665
1.95954
1.8486
1.75153
1.66759
1.59546
1.5341
1.48484
1.44447
1.42716
1.43049
1.44553
1.4888
1.59689
1.85028
2.43228
3.72859
6.31783
6.85274
6.74074
6.44528
5.96958
5.54814
5.19272
4.89324
4.64085
4.42875
4.25323
4.11083
3.99947
3.91789
3.86524
3.83816
3.82154
3.82416
3.83691
3.86645
3.91463
3.9597
3.99586
4.0176
4.02704
4.02626
4.02223
4.01186
3.99038
3.96115
3.92822
3.8934
3.85764
3.82104
3.78363
3.74511
3.70556
3.66486
3.6232
3.58063
3.53767
3.49438
3.45102
3.4075
3.36402
3.3205
3.27715
3.23386
3.19085
3.14804
3.10562
3.0635
3.02188
2.98064
2.93997
2.89971
2.86005
2.8208
2.78216
2.74392
2.70628
2.66905
2.63242
2.59621
2.56063
2.52551
2.49126
2.45767
2.42674
2.39869
5.95163
5.55863
5.16869
4.78668
4.42016
4.07491
3.75461
3.46113
3.19467
2.95442
2.73901
2.54654
2.37502
2.22267
2.08724
1.96757
1.86147
1.76834
1.68652
1.61562
1.55546
1.50644
1.47348
1.47555
1.48789
1.52587
1.62195
1.84917
2.36396
3.5244
6.04336
7.04567
6.96012
6.69888
6.2041
5.75286
5.37503
5.06161
4.79789
4.57398
4.38342
4.22253
4.0881
3.97884
3.89431
3.83469
3.79948
3.77251
3.76788
3.77344
3.79031
3.82568
3.86737
3.90403
3.92896
3.9419
3.94169
3.93896
3.93066
3.91258
3.88383
3.85076
3.81629
3.78105
3.74518
3.70832
3.67051
3.63149
3.59148
3.55063
3.50931
3.46748
3.42541
3.38303
3.34061
3.29806
3.25561
3.21318
3.17099
3.12895
3.08729
3.04589
3.00497
2.96441
2.9244
2.88478
2.84575
2.8071
2.76903
2.73135
2.69424
2.65751
2.62136
2.5856
2.55045
2.51571
2.48184
2.44848
2.41786
2.38953
5.98919
5.61628
5.24899
4.88844
4.53967
4.20827
3.8976
3.60979
3.34594
3.10527
2.88757
2.69094
2.5142
2.35568
2.21349
2.08668
1.97309
1.8723
1.78267
1.70377
1.63621
1.57959
1.54431
1.54701
1.56191
1.60632
1.71385
1.95022
2.44337
3.4016
5.03167
6.70231
6.91381
6.79987
6.49248
6.01764
5.59395
5.25122
4.96746
4.72729
4.52197
4.34559
4.19328
4.06237
3.95264
3.86431
3.79784
3.75454
3.72099
3.70259
3.70482
3.71452
3.73683
3.77347
3.80794
3.83539
3.85121
3.85458
3.85287
3.84665
3.83237
3.8048
3.77327
3.73943
3.70458
3.66888
3.63252
3.59519
3.5571
3.51816
3.47858
3.4383
3.39761
3.35648
3.3152
3.2737
3.23226
3.19077
3.14949
3.10831
3.06748
3.02688
2.98675
2.94693
2.90765
2.86873
2.83036
2.79236
2.75491
2.71782
2.68127
2.64507
2.60943
2.57414
2.53946
2.50513
2.47168
2.43861
2.40834
2.37983
6.04335
5.67686
5.32483
4.98121
4.64784
4.32881
4.0279
3.74619
3.48598
3.24636
3.02765
2.82863
2.64796
2.48489
2.33723
2.20463
2.08486
1.97768
1.88182
1.79645
1.725
1.66304
1.64346
1.64989
1.67674
1.74953
1.91541
2.26216
2.90139
3.49847
4.18038
5.35053
6.38697
6.59573
6.51987
6.2955
5.87564
5.49597
5.17603
4.90477
4.67595
4.48034
4.31051
4.16114
4.03111
3.91997
3.82818
3.75585
3.70542
3.66477
3.63736
3.63443
3.63847
3.65088
3.6773
3.70964
3.7382
3.75698
3.76492
3.764
3.75968
3.74865
3.72599
3.69598
3.66242
3.62748
3.59219
3.55641
3.52017
3.4831
3.44531
3.40669
3.36751
3.32777
3.28774
3.24741
3.20705
3.1666
3.12631
3.08609
3.04618
3.00646
2.96718
2.92818
2.88968
2.85151
2.81386
2.77654
2.73975
2.70328
2.66732
2.63169
2.59659
2.56182
2.52763
2.49376
2.46077
2.42804
2.39817
2.36958
6.1159
5.74001
5.396
5.06566
4.74626
4.43833
4.14661
3.87183
3.61561
3.37843
3.15969
2.95957
2.7763
2.60974
2.45798
2.32051
2.1959
2.08342
1.98268
1.89382
1.8197
1.76789
1.77011
1.78737
1.84269
1.97652
2.26002
2.82715
3.29656
3.5746
3.87443
4.36118
5.14062
5.97711
6.28611
6.24599
6.09705
5.78534
5.44938
5.1278
4.85952
4.63456
4.44052
4.27107
4.12262
3.99285
3.88065
3.78619
3.70951
3.65254
3.60622
3.57343
3.55839
3.55999
3.56694
3.58315
3.61157
3.63853
3.65976
3.67202
3.67229
3.67005
3.66267
3.64625
3.61748
3.58451
3.55042
3.5158
3.48084
3.44533
3.40926
3.3724
3.3349
3.2967
3.2581
3.21907
3.17993
3.14062
3.10142
3.06225
3.02334
2.9846
2.94624
2.90812
2.87046
2.83309
2.79621
2.75961
2.72351
2.6877
2.65237
2.61735
2.58282
2.54861
2.51496
2.48159
2.44911
2.41677
2.38737
2.35878
6.18701
5.80492
5.46369
5.14297
4.83523
4.53911
4.25572
3.98796
3.73648
3.50209
3.28465
3.08395
2.89947
2.73013
2.57545
2.43407
2.30562
2.18935
2.08525
1.99716
1.92476
1.91165
1.92329
1.96747
2.08544
2.34229
2.86612
3.34356
3.5807
3.67241
3.79317
3.96112
4.2696
4.78343
5.52014
5.98175
5.97615
5.90416
5.72412
5.40278
5.09634
4.82887
4.59836
4.40133
4.23001
4.08095
3.95013
3.83668
3.7398
3.6596
3.59699
3.54657
3.50733
3.48233
3.4804
3.48326
3.4923
3.51181
3.53735
3.56008
3.57529
3.58039
3.57919
3.57428
3.56245
3.53843
3.5076
3.47395
3.43964
3.40508
3.37038
3.33513
3.29936
3.26287
3.22589
3.18839
3.15066
3.11267
3.0747
3.03669
2.99888
2.96118
2.92382
2.88666
2.8499
2.81339
2.77732
2.7415
2.70614
2.67103
2.63638
2.60201
2.56811
2.5345
2.50144
2.46863
2.43672
2.40484
2.37595
2.3475
6.30936
5.89227
5.53574
5.21799
4.91885
4.63218
4.35793
4.09639
3.8498
3.6186
3.4029
3.2026
3.01731
2.84644
2.6893
2.54535
2.41407
2.29562
2.19265
2.10691
2.07064
2.0791
2.11737
2.22508
2.46632
2.9638
3.48198
3.72191
3.78402
3.78332
3.78675
3.81389
3.90322
4.09979
4.4896
5.1094
5.61615
5.76712
5.73212
5.60985
5.35442
5.07934
4.80253
4.56722
4.36455
4.18922
4.03707
3.90457
3.78936
3.69028
3.60691
3.53968
3.48551
3.44029
3.40946
3.39712
3.39811
3.40292
3.4145
3.43691
3.45905
3.47675
3.48665
3.48634
3.48369
3.4758
3.45866
3.42973
3.39741
3.36369
3.32972
3.29551
3.2611
3.22622
3.19095
3.15515
3.11905
3.08258
3.04601
3.00931
2.97273
2.93618
2.8999
2.86376
2.82797
2.79237
2.75717
2.72218
2.6876
2.65326
2.61933
2.58567
2.55245
2.51951
2.48709
2.4549
2.42363
2.3923
2.36402
2.33586
6.34821
5.98258
5.61522
5.29384
4.99961
4.72048
4.45339
4.19897
3.95689
3.72903
3.51538
3.31592
3.13052
2.95868
2.80014
2.65454
2.52209
2.40527
2.30658
2.24919
2.25457
2.28644
2.38285
2.60908
3.08504
3.66156
3.93137
3.96329
3.94663
3.89719
3.79678
3.76431
3.77764
3.83585
3.97566
4.26106
4.73082
5.23269
5.52924
5.5181
5.45277
5.30024
5.03944
4.78478
4.54109
4.33199
4.15159
3.99474
3.85897
3.74106
3.63937
3.55283
3.4812
3.42354
3.3735
3.33658
3.31573
3.3123
3.31437
3.32121
3.3363
3.35774
3.37701
3.39048
3.39369
3.39235
3.38733
3.3753
3.35091
3.3206
3.28784
3.25433
3.22077
3.18711
3.15337
3.11927
3.0849
3.05013
3.01517
2.97996
2.94476
2.90949
2.8744
2.83936
2.80461
2.77
2.73573
2.70163
2.6679
2.63438
2.60125
2.56836
2.53588
2.50367
2.47199
2.4405
2.40995
2.37931
2.35172
2.32413
6.32488
6.1051
5.71748
5.3783
5.08048
4.80553
4.54433
4.29545
4.05874
3.83416
3.62274
3.42459
3.23955
3.06753
2.90855
2.76291
2.63258
2.52249
2.44492
2.44759
2.4747
2.56409
2.78553
3.25327
3.88208
4.1834
4.20542
4.18204
4.11344
3.97363
3.8438
3.75445
3.73595
3.74167
3.77651
3.8697
4.06293
4.38307
4.84078
5.18211
5.29473
5.27016
5.18077
4.98661
4.7511
4.51797
4.30254
4.11652
3.95482
3.81439
3.69299
3.58797
3.49793
3.4219
3.36041
3.30664
3.26434
3.23713
3.22545
3.22614
3.22987
3.23914
3.25785
3.27733
3.29287
3.30125
3.30072
3.29757
3.28894
3.27062
3.24285
3.21148
3.17903
3.14633
3.11377
3.0811
3.04836
3.01532
2.98209
2.94854
2.91489
2.88105
2.84726
2.81344
2.77981
2.74626
2.71299
2.67985
2.64704
2.61441
2.58214
2.5501
2.51846
2.48707
2.45621
2.42556
2.39587
2.36614
2.33939
2.31284
6.25882
6.12632
5.83469
5.47614
5.16627
4.89011
4.63287
4.38835
4.15568
3.93486
3.72587
3.52928
3.34526
3.17385
3.01616
2.87306
2.75273
2.65703
2.65584
2.67902
2.76098
2.97729
3.43397
4.13371
4.47025
4.48536
4.45669
4.37267
4.20306
4.04494
3.91563
3.81268
3.73826
3.70672
3.70398
3.71614
3.76665
3.88337
4.10088
4.43737
4.7896
5.03287
5.04449
5.00967
4.91165
4.70663
4.4905
4.27819
4.08553
3.91779
3.7719
3.64557
3.53647
3.44245
3.36236
3.29641
3.23992
3.19336
3.1603
3.14183
3.13879
3.1405
3.14627
3.15917
3.17814
3.19487
3.20703
3.20801
3.20647
3.20123
3.18877
3.16408
3.13529
3.10436
3.07291
3.04132
3.00988
2.97837
2.94681
2.91497
2.88297
2.8507
2.81836
2.78588
2.7535
2.72111
2.68893
2.65684
2.62505
2.5934
2.56209
2.53099
2.5003
2.46987
2.43999
2.41038
2.38176
2.35336
2.32772
2.30308
6.15947
6.09693
5.92318
5.57688
5.25658
4.97561
4.71917
4.47824
4.24917
4.03163
3.82541
3.63101
3.44867
3.27963
3.1256
2.99382
2.88921
2.87449
2.89695
2.97911
3.19627
3.65997
4.41054
4.77671
4.78953
4.75585
4.65844
4.46386
4.28579
4.13697
4.01118
3.90141
3.80616
3.72678
3.68045
3.65059
3.65068
3.66676
3.72735
3.86089
4.08407
4.40276
4.6672
4.8211
4.81118
4.76182
4.64504
4.44944
4.25235
4.0564
3.883
3.73146
3.59932
3.48529
3.38711
3.30327
3.23289
3.17425
3.12402
3.08571
3.06259
3.05191
3.05249
3.05563
3.0635
3.0794
3.09713
3.11032
3.11685
3.11615
3.11277
3.10397
3.0857
3.05979
3.03066
3.00041
2.97012
2.93983
2.90965
2.87936
2.84898
2.81834
2.78758
2.7566
2.7256
2.69452
2.66357
2.63265
2.60198
2.57143
2.54121
2.5112
2.48163
2.45236
2.42372
2.39553
2.36839
2.34207
2.31807
2.29708
5.98679
5.99874
5.91573
5.70699
5.36742
5.06864
4.80657
4.56625
4.34017
4.12578
3.92257
3.73084
3.55197
3.38781
3.24635
3.13299
3.10951
3.13178
3.21579
3.43954
3.92102
4.73038
5.12004
5.11992
5.07943
4.96562
4.75003
4.55239
4.38724
4.2463
4.11995
4.00301
3.89365
3.79308
3.70586
3.63872
3.59972
3.56661
3.56902
3.59127
3.65836
3.79785
4.01611
4.29086
4.5021
4.58999
4.57555
4.52185
4.4019
4.21237
4.02885
3.85067
3.6927
3.55533
3.43597
3.33317
3.24524
3.17098
3.10986
3.05711
3.01475
2.98562
2.96853
2.96497
2.96635
2.97122
2.982
2.99942
3.01416
3.02478
3.02545
3.02398
3.01885
3.00715
2.9841
2.95769
2.92935
2.90029
2.8712
2.84213
2.81315
2.78405
2.75489
2.7255
2.69606
2.66645
2.63691
2.60733
2.57796
2.54869
2.51975
2.49106
2.46288
2.43516
2.40823
2.38215
2.35738
2.33441
2.31356
2.2983
5.55069
5.89272
5.86538
5.74526
5.48453
5.17062
4.89739
4.65459
4.43021
4.21878
4.01888
3.83135
3.65833
3.50841
3.38765
3.35916
3.38242
3.47143
3.7091
4.22297
5.08507
5.49388
5.48913
5.4355
5.29279
5.0567
4.84013
4.65917
4.50426
4.36471
4.23393
4.10872
3.98864
3.87415
3.76759
3.67161
3.59265
3.53758
3.49242
3.46339
3.46767
3.49343
3.5629
3.70503
3.91262
4.13836
4.31377
4.36158
4.3458
4.29068
4.16976
3.99248
3.81954
3.65787
3.51341
3.38837
3.2814
3.19029
3.11254
3.04719
2.99127
2.94529
2.91148
2.88985
2.87935
2.87979
2.88247
2.88934
2.90321
2.91859
2.93033
2.93668
2.93607
2.9331
2.92538
2.9092
2.88576
2.85925
2.83168
2.80379
2.77599
2.74821
2.72052
2.69273
2.66494
2.63697
2.60905
2.58104
2.55323
2.5255
2.49818
2.47121
2.44496
2.41948
2.39529
2.37258
2.35207
2.33492
2.31708
2.30621
4.57295
5.65022
5.77408
5.72299
5.57864
5.28504
4.9978
4.74755
4.52205
4.31257
4.11674
3.93576
3.7784
3.65176
3.62293
3.64851
3.7463
4.00389
4.56175
5.47252
5.89002
5.881
5.8136
5.64344
5.38321
5.14805
4.95155
4.78287
4.63052
4.487
4.34892
4.21497
4.08533
3.96055
3.84169
3.73021
3.62872
3.53856
3.47213
3.41388
3.37047
3.34635
3.35236
3.38017
3.44912
3.58825
3.78154
3.96846
4.11713
4.14034
4.12284
4.07012
3.95488
3.78857
3.622
3.4742
3.34522
3.2332
3.13546
3.0528
2.98384
2.92609
2.87703
2.83965
2.81388
2.79853
2.79524
2.79644
2.8005
2.80995
2.82493
2.83844
2.8481
2.84976
2.84846
2.84396
2.83383
2.81363
2.79009
2.76439
2.73802
2.71145
2.68508
2.65877
2.63263
2.60641
2.58031
2.55415
2.52825
2.50253
2.47741
2.45293
2.42973
2.40784
2.38855
2.37193
2.35596
2.34225
2.33071
2.32806
2.90361
5.07792
5.64444
5.65093
5.58234
5.41229
5.11829
4.85218
4.61944
4.41002
4.21954
4.0554
3.924
3.90018
3.92961
4.03973
4.32611
4.94305
5.90963
6.31651
6.30173
6.21596
6.01088
5.72615
5.47329
5.26257
5.08105
4.91606
4.75994
4.60908
4.46226
4.31947
4.18107
4.04771
3.91981
3.79821
3.68373
3.57779
3.48281
3.40298
3.33884
3.2811
3.23864
3.21978
3.22687
3.25541
3.32221
3.45472
3.63065
3.78975
3.91941
3.93008
3.91209
3.86226
3.75381
3.6029
3.45003
3.30926
3.18449
3.08162
2.99465
2.92114
2.85969
2.80841
2.76735
2.73766
2.71816
2.7106
2.71122
2.71412
2.72108
2.73494
2.74897
2.75982
2.76603
2.7656
2.76316
2.75661
2.7429
2.72213
2.69866
2.67398
2.64915
2.62432
2.59983
2.57544
2.55137
2.52746
2.50401
2.48114
2.45934
2.43897
2.42099
2.40611
2.3922
2.37964
2.37059
2.36556
2.36723
2.37459
2.16236
3.78876
5.27871
5.56116
5.54494
5.45485
5.25082
4.97041
4.72494
4.51412
4.33946
4.20219
4.18857
4.22358
4.35155
4.67732
5.37163
6.40637