/*--------------------------------*- C++ -*----------------------------------*\
  =========                 |
  \\      /  F ield         | OpenFOAM: The Open Source CFD Toolbox
   \\    /   O peration     | Website:  https://openfoam.org
    \\  /    A nd           | Version:  13
     \\/     M anipulation  |
\*---------------------------------------------------------------------------*/
FoamFile
{
    format      ascii;
    class       surfaceScalarField;
    location    "3.5";
    object      phi;
}
// * * * * * * * * * * * * * * * * * * * * * * * * * * * * * * * * * * * * * //

dimensions      [1 0 -1 0 0 0 0];

internalField   nonuniform List<scalar> 
10325
(
0.0840003
-2.39545e-10
0.0840001
1.00905e-08
0.0840008
2.74217e-09
0.083999
9.93312e-08
0.0840034
3.22973e-08
0.0839912
5.93297e-07
0.0840202
3.70159e-07
0.0839512
3.23769e-06
0.0840848
3.84748e-06
0.0838329
1.56704e-05
0.0841136
3.22613e-05
0.0836987
9.63675e-05
0.0836243
0.00030182
0.082384
0.00110466
0.0767049
0.00563192
0.0700456
0.00667722
0.0637603
0.00630034
0.0572827
0.00648827
0.0504847
0.0068049
0.0432824
0.00721627
0.0355745
0.00771215
0.027367
0.00820966
0.0186877
0.00866556
0.00955231
0.00912014
0.00955416
0.0840003
2.82856e-09
0.0840005
6.37568e-09
0.0839996
5.10539e-08
0.084002
6.17412e-08
0.0839963
3.72283e-07
0.0840095
4.24132e-07
0.0839791
2.28614e-06
0.0840431
3.02013e-06
0.0839077
1.27531e-05
0.0841127
2.37331e-05
0.0837801
7.25961e-05
0.0839862
0.000191127
0.0834412
0.000609464
0.0824165
0.00221987
0.0768538
0.0111065
0.070034
0.0135099
0.0638278
0.0125212
0.0574419
0.0128849
0.0506848
0.0135688
0.0434027
0.0145121
0.0355967
0.0155224
0.0272967
0.0165116
0.0185046
0.0174438
0.00931993
0.0182894
0.0188758
0.0840003
1.30033e-09
0.0840002
2.06128e-08
0.0840004
3.51415e-08
0.0839999
2.01207e-07
0.0840012
2.73165e-07
0.0839954
1.32205e-06
0.0840095
1.74965e-06
0.0839692
8.06508e-06
0.0840429
1.2011e-05
0.0838991
4.52288e-05
0.0840352
9.44749e-05
0.083774
0.000293083
0.083621
0.000883994
0.0825259
0.00322144
0.0776774
0.0159009
0.0707533
0.0204512
0.0645154
0.0187749
0.0581641
0.0192468
0.0514376
0.0203021
0.0441282
0.0218342
0.0362466
0.0234082
0.0278404
0.0249192
0.0188788
0.0263946
0.00949925
0.0276523
0.0283752
0.0840003
4.11141e-09
0.0840004
1.49928e-08
0.084
8.199e-08
0.084001
1.47279e-07
0.0839978
6.00559e-07
0.0840061
1.03381e-06
0.0839836
3.68497e-06
0.0840353
6.77127e-06
0.0839189
2.16938e-05
0.084103
4.63183e-05
0.0838184
0.000132292
0.0840042
0.000352576
0.0835767
0.00111005
0.0829149
0.00396628
0.0793902
0.01934
0.0724065
0.0274478
0.0659971
0.0251981
0.0595953
0.0256591
0.0528677
0.0270331
0.0455425
0.0291778
0.0375799
0.0313716
0.0290229
0.033479
0.0198076
0.0355941
0.0100317
0.0374157
0.0384112
0.0840003
2.60719e-09
0.0840001
2.49598e-08
0.084001
6.16444e-08
0.0839989
2.4283e-07
0.0840039
4.62603e-07
0.083992
1.57547e-06
0.0840201
3.01811e-06
0.0839583
9.58997e-06
0.084083
1.9887e-05
0.0838555
5.77664e-05
0.0841524
0.000138852
0.0837688
0.000398651
0.0839262
0.00121317
0.0834378
0.00430454
0.0823486
0.0203933
0.0753339
0.0344783
0.0684634
0.0320822
0.0618642
0.0322668
0.0550723
0.0338317
0.0476964
0.0365621
0.039649
0.0394248
0.0308641
0.0422632
0.0212985
0.0451451
0.0109047
0.0477894
0.0493152
0.0840003
3.40565e-09
0.0840004
2.08554e-08
0.0840003
7.2378e-08
0.0840003
2.04617e-07
0.0839998
5.39037e-07
0.0840019
1.33464e-06
0.0839934
3.49592e-06
0.084016
8.16154e-06
0.083964
2.17919e-05
0.0840603
5.16597e-05
0.0839364
0.000138384
0.0840908
0.000368561
0.0840758
0.00112201
0.0845734
0.00385454
0.0876472
0.01725
0.0805463
0.0415848
0.0723999
0.0402382
0.0653683
0.0393076
0.0583391
0.0408676
0.0509026
0.0440099
0.0426189
0.0477148
0.0335463
0.0513351
0.023448
0.055226
0.012245
0.0589747
0.0615563
0.0840003
3.9371e-09
0.0840004
1.65551e-08
0.084
7.96987e-08
0.0840011
1.61816e-07
0.0839983
5.81139e-07
0.0840058
1.12977e-06
0.0839875
3.48944e-06
0.0840334
7.34778e-06
0.0839384
2.03702e-05
0.0841208
4.72533e-05
0.0838725
0.000124306
0.0842075
0.000327262
0.0841121
0.000966356
0.0848604
0.00323451
0.0881175
0.0139294
0.0834577
0.046229
0.0753785
0.0483162
0.068576
0.0461161
0.0619095
0.0475357
0.0545538
0.051379
0.0463234
0.055945
0.037025
0.0606402
0.0264954
0.0657396
0.0142582
0.071189
0.0758111
0.0840003
2.25162e-09
0.0840002
2.17163e-08
0.0840008
5.43463e-08
0.0839992
2.12077e-07
0.0840031
4.15011e-07
0.0839945
1.36947e-06
0.0840152
2.74163e-06
0.0839715
8.15072e-06
0.0840643
1.76239e-05
0.0839008
4.80722e-05
0.0841524
0.000115617
0.083871
0.000314666
0.0841846
0.00090744
0.0842766
0.00300161
0.0856203
0.0125999
0.0823238
0.0494955
0.0763113
0.0543176
0.0708577
0.0515798
0.0646816
0.053713
0.0581178
0.0579535
0.0503118
0.0637584
0.0412396
0.0697119
0.0304946
0.0764752
0.0174044
0.0842555
0.0932084
0.0840003
3.75694e-09
0.0840004
1.69641e-08
0.0840001
7.64218e-08
0.0840007
1.65273e-07
0.0839989
5.53046e-07
0.0840039
1.12619e-06
0.0839908
3.35771e-06
0.0840225
7.18248e-06
0.083952
1.98282e-05
0.084084
4.586e-05
0.083883
0.000120625
0.0841106
0.000312672
0.0839184
0.000904903
0.0840723
0.00296112
0.0847385
0.0118784
0.0816791
0.0525265
0.0785997
0.0573963
0.0729863
0.057199
0.0671493
0.0595561
0.0613734
0.0637363
0.0545657
0.0705732
0.0463734
0.077912
0.0364759
0.0863634
0.0225752
0.0981395
0.115775
0.0840003
2.77771e-09
0.0840002
2.08027e-08
0.0840007
6.31756e-08
0.0839995
2.03961e-07
0.0840024
4.72474e-07
0.0839958
1.34862e-06
0.0840113
3.01924e-06
0.0839775
8.2398e-06
0.0840476
1.8914e-05
0.0839152
4.98363e-05
0.0841164
0.000121063
0.08384
0.000325694
0.0840888
0.000916858
0.083902
0.00296894
0.0844179
0.0114275
0.0828794
0.0540139
0.0786968
0.0615775
0.0744307
0.061469
0.0699997
0.0639928
0.0649911
0.0687561
0.0596246
0.0759446
0.0532959
0.0842437
0.0444327
0.0952222
0.0313203
0.111237
0.147086
0.0840003
3.113e-09
0.0840003
2.09337e-08
0.0840005
6.76449e-08
0.084
2.03719e-07
0.0840008
5.10322e-07
0.0839995
1.32796e-06
0.0839998
3.29875e-06
0.0840012
8.10037e-06
0.0839899
2.05006e-05
0.084009
4.99111e-05
0.0839735
0.000128552
0.0839889
0.000331746
0.0839622
0.000938673
0.083972
0.00297261
0.0843156
0.0110558
0.0849913
0.053306
0.0806746
0.0658949
0.0763394
0.065807
0.0728831
0.0674547
0.0691713
0.0724773
0.0655822
0.0795434
0.061332
0.0885008
0.0572446
0.0993098
0.0569178
0.111555
0.115152
0.0888415
0.0840003
3.68555e-09
0.0840004
1.88015e-08
0.0840002
7.66227e-08
0.0840005
1.83769e-07
0.0839995
5.63419e-07
0.0840025
1.24178e-06
0.0839941
3.48874e-06
0.0840154
7.87235e-06
0.0839649
2.10297e-05
0.0840706
4.99024e-05
0.0838852
0.000129932
0.0841342
0.000331477
0.0838903
0.000927972
0.084183
0.00287953
0.0847381
0.0103798
0.0893643
0.0486713
0.0846742
0.0705874
0.0797134
0.0707723
0.0761544
0.0710157
0.0732751
0.0753612
0.0707106
0.0821142
0.0687706
0.0904478
0.0684811
0.0996033
0.0729314
0.107102
0.104899
0.0831756
0.0840003
2.62327e-09
0.0840002
1.99806e-08
0.0840006
5.91961e-08
0.0839998
1.95132e-07
0.0840018
4.4651e-07
0.0839975
1.28486e-06
0.0840081
2.90848e-06
0.0839865
7.84167e-06
0.0840376
1.84028e-05
0.0839424
4.76615e-05
0.0841248
0.000117333
0.0839033
0.000306318
0.0842781
0.000830906
0.0844098
0.0025148
0.086148
0.00874942
0.0971198
0.0376468
0.0911488
0.0765554
0.0849331
0.07699
0.0808719
0.0750827
0.0781182
0.0781195
0.0763323
0.0839051
0.0760039
0.0907821
0.0783351
0.0972786
0.0838205
0.101616
0.0986689
0.0900468
0.0840003
2.71558e-09
0.0840004
1.48951e-08
0.0840003
5.74545e-08
0.0840005
1.45564e-07
0.0839998
4.2095e-07
0.0840022
9.77053e-07
0.0839969
2.60488e-06
0.0840128
6.08679e-06
0.0839813
1.55987e-05
0.0840684
3.76299e-05
0.0839441
9.41501e-05
0.0842396
0.000236813
0.084182
0.000626219
0.0851178
0.00180317
0.087819
0.0059081
0.101575
0.0239174
0.0974269
0.0806882
0.0931558
0.0812618
0.0869792
0.0812627
0.0837001
0.0814015
0.0824146
0.0851945
0.0828612
0.0903394
0.0854416
0.0947065
0.0902479
0.0968093
0.0936631
0.0952493
0.0840003
2.26427e-09
0.0840003
1.32063e-08
0.0840005
4.75103e-08
0.0840001
1.28996e-07
0.0840012
3.52141e-07
0.0839991
8.41483e-07
0.0840046
2.23366e-06
0.0839949
5.07182e-06
0.0840168
1.37169e-05
0.0839866
3.04557e-05
0.0840595
8.31825e-05
0.0840054
0.000193466
0.0842295
0.000528594
0.0844486
0.00145441
0.0857316
0.00469702
0.0915812
0.0180337
0.098785
0.0734705
0.0955421
0.0845034
0.0915533
0.0852513
0.08875
0.0842094
0.0877672
0.0861802
0.0884789
0.089629
0.0908452
0.0923523
0.0947501
0.0929105
0.0895599
0.0988503
0.0840003
1.66174e-09
0.0840003
1.26404e-08
0.0840003
3.8063e-08
0.0840004
1.23172e-07
0.0840004
2.83823e-07
0.0840002
8.11237e-07
0.0840017
1.77766e-06
0.0839968
5.00113e-06
0.0840142
1.08717e-05
0.0839758
3.02423e-05
0.0840724
6.77108e-05
0.0839454
0.00018364
0.0842012
0.000452794
0.0841887
0.00128392
0.0850732
0.00396515
0.0885335
0.014473
0.0988418
0.0631594
0.097549
0.0857957
0.0951967
0.0876041
0.0928963
0.0865119
0.092181
0.0869049
0.0929922
0.088812
0.0950528
0.090293
0.0981334
0.0898409
0.0863624
0.101334
0.0840003
1.64784e-09
0.0840003
1.007e-08
0.0840003
3.53261e-08
0.0840004
9.83337e-08
0.0840002
2.63035e-07
0.0840011
6.50305e-07
0.0839987
1.66782e-06
0.0840068
4.00317e-06
0.0839883
1.02539e-05
0.0840417
2.45843e-05
0.0839428
6.30541e-05
0.0841629
0.000154645
0.0839367
0.000403175
0.0844348
0.0010877
0.0848574
0.0032891
0.0880136
0.0114441
0.104038
0.0470841
0.102139
0.0876912
0.0997683
0.0899734
0.0969568
0.0893215
0.0961727
0.0876971
0.0968201
0.0881707
0.0984841
0.0886277
0.100825
0.0875025
0.0839816
0.103214
0.0840003
1.28441e-09
0.0840003
7.93982e-09
0.0840003
2.78644e-08
0.0840004
7.75302e-08
0.0840001
2.06178e-07
0.0840013
5.11687e-07
0.0839989
1.28946e-06
0.0840072
3.13143e-06
0.0839913
7.7908e-06
0.0840422
1.89092e-05
0.0839611
4.70038e-05
0.0841906
0.000115384
0.0839984
0.000291986
0.0846974
0.000762954
0.0854646
0.00217593
0.0900785
0.00703104
0.109835
0.0272579
0.109078
0.0884384
0.106542
0.0925073
0.103054
0.0928084
0.100789
0.0899636
0.100575
0.0883871
0.101603
0.0876021
0.103218
0.0858892
0.0823385
0.104863
0.0840003
1.02394e-09
0.0840003
6.31717e-09
0.0840003
2.23223e-08
0.0840004
6.15412e-08
0.0840002
1.64892e-07
0.0840011
4.08141e-07
0.0839992
1.02328e-06
0.0840056
2.51307e-06
0.083993
6.13688e-06
0.084032
1.5229e-05
0.0839652
3.67841e-05
0.084145
9.25295e-05
0.0839468
0.000227272
0.0844631
0.000593056
0.0846521
0.00163115
0.0868303
0.0051169
0.0948923
0.0190576
0.109443
0.0738988
0.108951
0.0929979
0.106946
0.0948119
0.10462
0.0922884
0.103953
0.0890609
0.104435
0.0871217
0.105435
0.0848917
0.0813079
0.106469
0.0840003
8.49216e-10
0.0840003
4.97573e-09
0.0840003
1.81525e-08
0.0840003
4.85692e-08
0.0840004
1.33838e-07
0.0840005
3.23778e-07
0.0840001
8.38794e-07
0.0840027
2.00561e-06
0.0839968
5.07351e-06
0.0840183
1.22874e-05
0.0839794
3.06952e-05
0.0840947
7.57889e-05
0.0839524
0.000189681
0.0843181
0.00048651
0.0843455
0.00131962
0.0857209
0.00398095
0.0906342
0.0140008
0.110178
0.054366
0.111589
0.0915855
0.110715
0.0956834
0.108483
0.0945192
0.107145
0.0903986
0.107027
0.0872466
0.107509
0.0844124
0.0807657
0.108052
0.0840003
6.30131e-10
0.0840003
3.81678e-09
0.0840004
1.33906e-08
0.0840003
3.72051e-08
0.0840005
9.93996e-08
0.0840002
2.42252e-07
0.0840012
6.28245e-07
0.0840004
1.45818e-06
0.0840033
3.83105e-06
0.0840055
8.66768e-06
0.0840094
2.30655e-05
0.0840447
5.21676e-05
0.0840668
0.000138618
0.0842677
0.000328865
0.0846568
0.000888987
0.0861983
0.00247745
0.0921308
0.00802473
0.116664
0.0298292
0.117586
0.0906618
0.116565
0.0967038
0.113784
0.0972996
0.111017
0.0931678
0.109894
0.0883711
0.109724
0.0845875
0.0807054
0.109788
0.0840003
4.50307e-10
0.0840003
2.93153e-09
0.0840003
9.85745e-09
0.0840004
2.86645e-08
0.0840003
7.28269e-08
0.0840004
1.87873e-07
0.0840007
4.54739e-07
0.0840002
1.13865e-06
0.084004
2.74279e-06
0.0839973
6.79563e-06
0.0840267
1.64422e-05
0.0839834
4.05859e-05
0.0841413
9.94949e-05
0.0840112
0.00024814
0.0845574
0.000634797
0.0849851
0.00173939
0.087902
0.00536556
0.0979893
0.0195893
0.117198
0.0714692
0.118468
0.0954339
0.117191
0.0985753
0.114211
0.0961453
0.112847
0.0897398
0.11205
0.0853865
0.0810739
0.111684
0.0840003
3.47393e-10
0.0840003
2.14962e-09
0.0840003
7.56484e-09
0.0840004
2.10225e-08
0.0840003
5.58276e-08
0.0840005
1.39423e-07
0.0840005
3.46308e-07
0.0840006
8.57289e-07
0.0840023
2.07945e-06
0.0839992
5.19177e-06
0.0840171
1.24529e-05
0.0839897
3.13698e-05
0.0840974
7.55333e-05
0.0839932
0.000191987
0.0843915
0.000479631
0.0845598
0.0012912
0.0863939
0.00378395
0.0928318
0.0129905
0.117096
0.0472262
0.120107
0.0924233
0.120788
0.0978942
0.119314
0.0976208
0.115925
0.0931264
0.11458
0.086736
0.0819609
0.113697
0.0840003
2.40056e-10
0.0840003
1.60562e-09
0.0840003
5.30505e-09
0.0840003
1.56469e-08
0.0840004
3.92968e-08
0.0840003
1.02199e-07
0.0840007
2.45676e-07
0.0840001
6.17494e-07
0.0840029
1.48352e-06
0.0839986
3.66402e-06
0.0840175
8.89826e-06
0.0839909
2.17275e-05
0.0840991
5.33912e-05
0.0839879
0.000130552
0.0844265
0.000327267
0.0845083
0.000840236
0.0863108
0.00233471
0.0917569
0.00731463
0.112932
0.0261149
0.123991
0.0813544
0.124
0.0978846
0.122241
0.0993798
0.11892
0.0964532
0.117347
0.0883066
0.0834076
0.115901
0.0840003
1.69462e-10
0.0840003
1.15394e-09
0.0840003
3.79552e-09
0.0840003
1.12286e-08
0.0840003
2.8103e-08
0.0840004
7.3824e-08
0.0840004
1.74201e-07
0.0840006
4.50485e-07
0.0840013
1.04586e-06
0.0840005
2.69029e-06
0.084009
6.27537e-06
0.0839974
1.60168e-05
0.0840565
3.78224e-05
0.0839947
9.58017e-05
0.0842667
0.000233433
0.0842525
0.000598418
0.0852796
0.00159683
0.0875433
0.00478725
0.0970529
0.0167532
0.12161
0.0567531
0.125045
0.0944444
0.125875
0.0985453
0.124642
0.0976873
0.120605
0.0923534
0.0856434
0.118369
0.0840003
1.254e-10
0.0840003
7.54676e-10
0.0840003
2.72397e-09
0.0840003
7.37819e-09
0.0840003
2.00113e-08
0.0840004
4.87522e-08
0.0840003
1.22659e-07
0.0840009
2.97767e-07
0.0840001
7.241e-07
0.0840038
1.78724e-06
0.084
4.2473e-06
0.084018
1.06494e-05
0.0840054
2.49972e-05
0.0840837
6.34639e-05
0.0840878
0.000149671
0.0844256
0.000384627
0.0848793
0.000970233
0.0871046
0.0027324
0.0951232
0.00863372
0.122395
0.0294984
0.129658
0.0871743
0.129613
0.0985877
0.127397
0.0999034
0.124021
0.095727
0.0881695
0.121504
0.0840003
8.7767e-11
0.0840003
5.17831e-10
0.0840003
1.87356e-09
0.0840003
5.04913e-09
0.0840003
1.37939e-08
0.0840003
3.29878e-08
0.0840004
8.57283e-08
0.0840005
1.98651e-07
0.0840006
5.126e-07
0.0840017
1.18032e-06
0.0840006
3.03119e-06
0.0840113
7.02107e-06
0.0839989
1.78738e-05
0.0840691
4.20684e-05
0.0840061
0.000105838
0.0843313
0.000257561
0.0843578
0.000656093
0.0856669
0.00175185
0.0887379
0.00526541
0.100088
0.0183139
0.126658
0.0605605
0.129872
0.0953677
0.1317
0.0980711
0.129125
0.0983001
0.0919381
0.125349
0.0840003
5.35064e-11
0.0840003
3.64679e-10
0.0840003
1.19071e-09
0.0840003
3.55631e-09
0.0840003
8.79708e-09
0.0840003
2.31927e-08
0.0840004
5.44626e-08
0.0840003
1.39668e-07
0.084001
3.24869e-07
0.0840001
8.24858e-07
0.0840042
1.92969e-06
0.0840001
4.83741e-06
0.0840205
1.1464e-05
0.0840058
2.83939e-05
0.0840952
6.85754e-05
0.084093
0.000168779
0.0844709
0.000420419
0.0849407
0.00108296
0.0873745
0.0030304
0.0958988
0.00966841
0.124081
0.0324092
0.133043
0.0863995
0.133639
0.097473
0.13238
0.0995573
0.0957317
0.128587
0.0840003
3.91243e-11
0.0840003
2.35322e-10
0.0840003
8.33788e-10
0.0840003
2.29175e-09
0.0840003
6.11572e-09
0.0840003
1.49181e-08
0.0840004
3.80276e-08
0.0840004
8.93326e-08
0.0840005
2.27649e-07
0.0840008
5.27529e-07
0.0840009
1.34363e-06
0.0840046
3.1196e-06
0.0840015
7.89702e-06
0.0840292
1.85337e-05
0.0840077
4.64381e-05
0.0841614
0.000111273
0.0841268
0.000278113
0.0847729
0.00069618
0.0856376
0.00186726
0.0900242
0.00555753
0.103268
0.0189973
0.129861
0.0598301
0.133425
0.0939075
0.135685
0.0972933
0.0976126
0.133803
0.0840003
2.41074e-11
0.0840003
1.55505e-10
0.0840003
5.30951e-10
0.0840003
1.51927e-09
0.0840003
3.90029e-09
0.0840003
9.93113e-09
0.0840004
2.39675e-08
0.0840003
5.98095e-08
0.0840006
1.42077e-07
0.0840003
3.52798e-07
0.0840021
8.36125e-07
0.0840002
2.06983e-06
0.0840102
4.92092e-06
0.0840016
1.21177e-05
0.0840532
2.90117e-05
0.0840218
7.12691e-05
0.0842595
0.000173264
0.0843126
0.000431094
0.0853543
0.0011048
0.0875649
0.00306729
0.0970093
0.00972993
0.125377
0.0314008
0.13604
0.0832441
0.136684
0.0966458
0.0976676
0.136625
0.0840003
1.49735e-11
0.0840003
1.04025e-10
0.0840003
3.349e-10
0.0840003
1.01043e-09
0.0840003
2.47779e-09
0.0840003
6.54074e-09
0.0840004
1.5354e-08
0.0840003
3.90553e-08
0.0840005
9.17097e-08
0.0840004
2.28191e-07
0.0840013
5.44755e-07
0.0840008
1.32819e-06
0.0840046
3.22943e-06
0.0840059
7.71293e-06
0.0840174
1.92028e-05
0.0840448
4.50954e-05
0.0840899
0.000114217
0.0842785
0.000271646
0.084644
0.000700262
0.0859245
0.00182561
0.0901734
0.00542911
0.103486
0.0181218
0.131704
0.0550214
0.13698
0.0913659
0.0959983
0.138647
0.0840003
1.04515e-11
0.0840003
6.18053e-11
0.0840003
2.24419e-10
0.0840003
6.03066e-10
0.0840003
1.64197e-09
0.0840003
3.93198e-09
0.0840003
1.00332e-08
0.0840004
2.36366e-08
0.0840003
5.87939e-08
0.0840006
1.39803e-07
0.0840004
3.40759e-07
0.084002
8.22375e-07
0.0840008
1.9712e-06
0.0840095
4.82957e-06
0.0840048
1.13911e-05
0.0840487
2.83156e-05
0.0840407
6.63496e-05
0.084249
0.000166715
0.084382
0.000399293
0.0854039
0.0010334
0.0877998
0.00279311
0.0973952
0.00867994
0.125263
0.0271285
0.13891
0.0776951
0.0953858
0.139517
0.0840003
6.1407e-12
0.0840003
4.04199e-11
0.0840003
1.34318e-10
0.0840003
3.94002e-10
0.0840003
9.86734e-10
0.0840003
2.54442e-09
0.0840003
6.10887e-09
0.0840003
1.50333e-08
0.0840004
3.64453e-08
0.0840004
8.71393e-08
0.0840006
2.1545e-07
0.0840008
5.03293e-07
0.0840013
1.26651e-06
0.0840046
2.91527e-06
0.084003
7.42029e-06
0.0840299
1.69888e-05
0.0840134
4.33545e-05
0.0841735
0.000100329
0.0841286
0.000255968
0.0848503
0.000618848
0.0856068
0.00164555
0.089962
0.00471424
0.101312
0.0155254
0.132013
0.0470502
0.0873348
0.140063
0.0840003
3.84666e-12
0.0840003
2.43872e-11
0.0840003
8.4312e-11
0.0840003
2.37483e-10
0.0840003
6.184e-10
0.0840003
1.53745e-09
0.0840003
3.78746e-09
0.0840003
9.1916e-09
0.0840003
2.22135e-08
0.0840004
5.38782e-08
0.0840004
1.29119e-07
0.0840008
3.14111e-07
0.0840011
7.48778e-07
0.0840021
1.82672e-06
0.0840061
4.34586e-06
0.0840075
1.06147e-05
0.0840411
2.52834e-05
0.0840373
6.18488e-05
0.0842358
0.000148719
0.0843279
0.000367524
0.0852687
0.000921781
0.0872794
0.00247991
0.0954956
0.0074661
0.118947
0.0235294
0.0669149
0.139394
0.0840003
2.45408e-12
0.0840003
1.457e-11
0.0840003
5.30451e-11
0.0840003
1.42017e-10
0.0840003
3.86469e-10
0.0840003
9.28599e-10
0.0840003
2.34354e-09
0.0840003
5.58103e-09
0.0840003
1.36459e-08
0.0840004
3.28992e-08
0.0840004
7.85509e-08
0.0840006
1.92974e-07
0.0840007
4.5158e-07
0.0840017
1.12866e-06
0.0840033
2.60198e-06
0.0840055
6.56185e-06
0.0840234
1.50921e-05
0.0840215
3.80936e-05
0.0841467
8.83212e-05
0.0841552
0.000223107
0.0847693
0.00053629
0.0855476
0.00140266
0.0894389
0.00389095
0.100328
0.0124222
0.0370998
0.130184
0.0840003
1.41964e-12
0.0840003
9.13035e-12
0.0840003
3.08769e-11
0.0840003
8.87969e-11
0.0840003
2.26955e-10
0.0840003
5.70583e-10
0.0840003
1.39958e-09
0.0840003
3.36086e-09
0.0840003
8.28701e-09
0.0840003
1.94075e-08
0.0840004
4.85598e-08
0.0840005
1.11851e-07
0.0840005
2.82308e-07
0.0840014
6.48146e-07
0.084001
1.63293e-06
0.0840078
3.76966e-06
0.0840031
9.41499e-06
0.0840459
2.20439e-05
0.0840192
5.44293e-05
0.0842474
0.000130001
0.0842127
0.000320831
0.0851886
0.000797128
0.0865755
0.00210257
0.0931137
0.00615419
0.0193772
0.110743
0.0840003
8.22565e-13
0.0840003
5.41802e-12
0.0840003
1.82697e-11
0.0840003
5.2656e-11
0.0840003
1.336e-10
0.0840003
3.4049e-10
0.0840003
8.1061e-10
0.0840003
2.02678e-09
0.0840003
4.71885e-09
0.0840003
1.17799e-08
0.0840004
2.72626e-08
0.0840004
6.79179e-08
0.0840006
1.57621e-07
0.0840005
3.88907e-07
0.0840022
9.13541e-07
0.0840013
2.22054e-06
0.0840115
5.29087e-06
0.0840074
1.26772e-05
0.0840632
3.06577e-05
0.0840525
7.26503e-05
0.0843278
0.000178717
0.084473
0.000428481
0.0857964
0.00109367
0.0886869
0.00292509
0.00889884
0.0993942
0.0840003
5.04851e-13
0.0840003
3.11955e-12
0.0840003
1.09302e-11
0.0840003
3.03494e-11
0.0840003
7.98563e-11
0.0840003
1.95675e-10
0.0840003
4.86649e-10
0.0840003
1.15722e-09
0.0840003
2.83456e-09
0.0840003
6.71334e-09
0.0840003
1.63349e-08
0.0840004
3.87615e-08
0.0840004
9.3669e-08
0.0840007
2.23524e-07
0.0840008
5.36513e-07
0.0840022
1.28954e-06
0.084004
3.06839e-06
0.0840079
7.42727e-06
0.0840281
1.75943e-05
0.0840317
4.28436e-05
0.0841762
0.00010158
0.0842111
0.000250006
0.0849414
0.000608656
0.0859645
0.00157429
0.00441331
0.0908017
0.0840003
2.91145e-13
0.0840003
1.79581e-12
0.0840003
6.37088e-12
0.0840003
1.74731e-11
0.0840003
4.64784e-11
0.0840003
1.12939e-10
0.0840003
2.81206e-10
0.0840003
6.70509e-10
0.0840003
1.6258e-09
0.0840003
3.91138e-09
0.0840003
9.29792e-09
0.0840004
2.26154e-08
0.0840004
5.31735e-08
0.0840005
1.30575e-07
0.0840007
3.03885e-07
0.0840012
7.5179e-07
0.084003
1.74285e-06
0.0840037
4.31548e-06
0.0840185
1.00314e-05
0.0840168
2.47433e-05
0.08411
5.81087e-05
0.0841077
0.000142687
0.0845823
0.00034367
0.0849792
0.000859025
0.00224618
0.0875108
0.0840003
1.62118e-13
0.0840003
1.0433e-12
0.0840003
3.54965e-12
0.0840003
1.01463e-11
0.0840003
2.59042e-11
0.0840003
6.51331e-11
0.0840003
1.57613e-10
0.0840003
3.82244e-10
0.0840003
9.20409e-10
0.0840003
2.19323e-09
0.0840003
5.30961e-09
0.0840003
1.25314e-08
0.0840003
3.04675e-08
0.0840005
7.15674e-08
0.0840004
1.742e-07
0.0840012
4.08571e-07
0.0840009
9.94083e-07
0.0840055
2.33597e-06
0.0840044
5.65671e-06
0.0840279
1.33535e-05
0.0840303
3.22235e-05
0.0841364
7.6726e-05
0.0842284
0.000184916
0.0847403
0.000450549
0.00112628
0.0857044
0.0840003
9.41408e-14
0.0840003
5.87343e-13
0.0840003
2.04331e-12
0.0840003
5.71094e-12
0.0840003
1.48837e-11
0.0840003
3.65872e-11
0.0840003
9.05527e-11
0.0840003
2.14148e-10
0.0840003
5.27408e-10
0.0840003
1.22784e-09
0.0840003
3.02578e-09
0.0840003
7.02423e-09
0.0840003
1.72703e-08
0.0840004
4.01796e-08
0.0840004
9.81738e-08
0.0840008
2.3025e-07
0.0840008
5.56786e-07
0.0840026
1.31949e-06
0.0840039
3.14967e-06
0.0840104
7.57023e-06
0.0840267
1.78491e-05
0.0840461
4.33798e-05
0.0841699
0.00010201
0.0842729
0.000251191
0.000604688
0.0849653
0.0840003
5.20259e-14
0.0840003
3.26761e-13
0.0840003
1.15048e-12
0.0840003
3.18344e-12
0.0840003
8.37438e-12
0.0840003
2.05479e-11
0.0840003
5.02514e-11
0.0840003
1.21614e-10
0.0840003
2.88957e-10
0.0840003
7.0228e-10
0.0840003
1.64365e-09
0.0840003
4.03338e-09
0.0840003
9.33118e-09
0.0840004
2.30202e-08
0.0840004
5.31443e-08
0.0840004
1.31076e-07
0.0840009
3.03061e-07
0.0840009
7.43237e-07
0.084004
1.73566e-06
0.0840031
4.2094e-06
0.0840217
9.94151e-06
0.084017
2.38766e-05
0.0841183
5.71653e-05
0.0841166
0.00013651
0.000333388
0.0846023
0.0840003
3.00957e-14
0.0840003
1.80722e-13
0.0840003
6.36042e-13
0.0840003
1.7569e-12
0.0840003
4.62117e-12
0.0840003
1.12263e-11
0.0840003
2.80228e-11
0.0840003
6.54512e-11
0.0840003
1.62048e-10
0.0840003
3.74437e-10
0.0840003
9.24261e-10
0.0840003
2.13242e-09
0.0840003
5.23103e-09
0.0840004
1.21778e-08
0.0840003
2.95035e-08
0.0840005
6.95241e-08
0.0840005
1.6605e-07
0.0840012
3.97262e-07
0.0840012
9.34072e-07
0.0840045
2.26236e-06
0.0840072
5.26005e-06
0.0840198
1.28628e-05
0.0840482
2.97076e-05
0.0840971
7.31118e-05
0.000169902
0.0843007
0.0840003
1.436e-14
0.0840003
9.95673e-14
0.0840003
3.36492e-13
0.0840003
9.71685e-13
0.0840003
2.45137e-12
0.0840003
6.21107e-12
0.0840003
1.47821e-11
0.0840003
3.61398e-11
0.0840003
8.54318e-11
0.0840003
2.05116e-10
0.0840003
4.87128e-10
0.0840003
1.15838e-09
0.0840003
2.76878e-09
0.0840003
6.52412e-09
0.0840004
1.56875e-08
0.0840004
3.67577e-08
0.0840005
8.87178e-08
0.0840007
2.07061e-07
0.0840009
4.99652e-07
0.0840027
1.16837e-06
0.084003
2.80868e-06
0.0840152
6.59709e-06
0.0840136
1.57676e-05
0.0840887
3.72998e-05
8.90707e-05
0.084082
0.0840003
9.06566e-15
0.0840003
5.17585e-14
0.0840003
1.78098e-13
0.0840003
5.11692e-13
0.0840003
1.29167e-12
0.0840003
3.27992e-12
0.0840003
7.73207e-12
0.0840003
1.9099e-11
0.0840003
4.42543e-11
0.0840003
1.08253e-10
0.0840003
2.50891e-10
0.0840003
6.05793e-10
0.0840003
1.41947e-09
0.0840003
3.37788e-09
0.0840003
8.0074e-09
0.0840003
1.87739e-08
0.0840004
4.50861e-08
0.0840005
1.04332e-07
0.0840008
2.53208e-07
0.0840013
5.7942e-07
0.0840023
1.41346e-06
0.0840074
3.23068e-06
0.0840094
7.84353e-06
0.084045
1.80627e-05
4.33865e-05
0.0840487
0.0840003
3.76196e-15
0.0840003
2.7493e-14
0.0840003
9.42269e-14
0.0840003
2.51706e-13
0.0840003
6.76097e-13
0.0840003
1.59557e-12
0.0840003
3.99023e-12
0.0840003
9.28594e-12
0.0840003
2.23413e-11
0.0840003
5.27029e-11
0.0840003
1.22984e-10
0.0840003
2.96703e-10
0.0840003
6.72193e-10
0.0840003
1.65647e-09
0.0840003
3.67426e-09
0.0840003
9.16414e-09
0.0840004
2.01108e-08
0.0840004
5.00432e-08
0.0840007
1.10438e-07
0.0840006
2.70389e-07
0.0840023
6.04569e-07
0.0840021
1.44483e-06
0.0840106
3.30144e-06
0.0840139
7.63165e-06
1.79307e-05
0.0840475
0.0840003
3.04639e-15
0.0840003
1.34543e-14
0.0840003
4.32792e-14
0.0840003
1.27077e-13
0.0840003
3.15302e-13
0.0840003
7.79629e-13
0.0840003
1.87828e-12
0.0840003
4.40557e-12
0.0840003
1.05585e-11
0.0840003
2.42352e-11
0.0840003
5.81803e-11
0.0840003
1.31748e-10
0.0840003
3.17731e-10
0.0840003
7.12289e-10
0.0840003
1.70961e-09
0.0840003
3.85138e-09
0.0840003
9.08559e-09
0.0840004
2.07045e-08
0.0840003
4.76365e-08
0.0840008
1.1027e-07
0.0840004
2.47007e-07
0.084003
5.77598e-07
0.084001
1.25686e-06
0.0840146
2.97053e-06
6.23796e-06
0.0840059
0.0840003
6.93889e-16
0.0840003
5.63243e-15
0.0840003
1.95417e-14
0.0840003
5.37818e-14
0.0840003
1.41778e-13
0.0840003
3.51557e-13
0.0840003
8.37764e-13
0.0840003
1.97674e-12
0.0840003
4.69163e-12
0.0840003
1.05938e-11
0.0840003
2.56789e-11
0.0840003
5.59306e-11
0.0840003
1.3852e-10
0.0840003
2.91561e-10
0.0840003
7.41417e-10
0.0840003
1.50659e-09
0.0840003
3.88129e-09
0.0840004
7.74619e-09
0.0840003
1.98498e-08
0.0840006
3.98918e-08
0.0840001
9.65592e-08
0.084002
2.05494e-07
0.0839985
4.47213e-07
0.084011
1.02248e-06
1.95787e-06
0.0839886
0.0840003
-3.98986e-16
0.0840003
2.11072e-15
0.0840003
6.15263e-15
0.0840003
2.34554e-14
0.0840003
4.59275e-14
0.0840003
1.49432e-13
0.0840003
2.74133e-13
0.0840003
8.33236e-13
0.0840003
1.53645e-12
0.0840003
4.42405e-12
0.0840003
8.49249e-12
0.0840003
2.22553e-11
0.0840003
4.78163e-11
0.0840003
1.0757e-10
0.0840003
2.66893e-10
0.0840003
5.03071e-10
0.0840003
1.47758e-09
0.0840003
2.27518e-09
0.0840004
7.9419e-09
0.0840003
9.7943e-09
0.0840004
4.17373e-08
0.0840005
3.79668e-08
0.0839997
2.0953e-07
0.0840032
1.24115e-07
9.59799e-07
0.083991
0.0840003
0.0840003
0.0840003
0.0840003
0.0840003
0.0840003
0.0840003
0.0840003
0.0840003
0.0840003
0.0840003
0.0840003
0.0840003
0.0840003
0.0840003
0.0840003
0.0840003
0.0840003
0.0840004
0.0840001
0.0840008
0.0839991
0.0840032
0.0839933
0.0840157
0.0482849
0.040555
0.0320937
0.0161917
0.0251636
0.00693186
0.0223981
0.00276745
0.0222297
0.000166305
0.0241372
-0.00190589
0.0263247
-0.00218519
0.0275471
-0.00122096
0.0279643
-0.000415533
0.0279094
5.69657e-05
0.0276772
0.000234353
0.0275412
0.000136377
0.0275067
3.47573e-05
0.0275823
-7.62565e-05
0.0277067
-0.000126715
0.027792
-9.4326e-05
0.0277953
-2.50337e-05
0.0276073
0.000132976
0.0271183
0.000365337
0.0260953
0.000753419
0.0239164
0.00159517
0.0185982
0.00386502
0.00909996
0.00805601
0.000718209
0.00812741
-0.00612199
0.00686802
-0.0120134
0.00609508
-0.0167357
0.00487863
-0.0204476
0.00377602
-0.0229781
0.00250754
-0.0242549
0.00130781
-0.0251352
0.000908973
-0.0256834
0.000580645
-0.025847
0.000187664
-0.025652
-0.00019589
-0.0249649
-0.000709145
-0.0235895
-0.00143591
-0.0214595
-0.00221334
-0.0186872
-0.00284614
-0.0154471
-0.0033165
-0.0119047
-0.00360638
-0.00830264
-0.00365362
-0.00469829
-0.00364923
-0.00104434
-0.00369448
0.00247227
-0.00355783
0.00566764
-0.00323874
0.00865991
-0.00303947
0.0114557
-0.00284955
0.0140666
-0.00267104
0.0164807
-0.00247652
0.0187273
-0.00231108
0.0208765
-0.0022161
0.0229422
-0.00212904
0.0248805
-0.00199953
0.0266804
-0.00185489
0.0283587
-0.00172808
0.0299246
-0.00160757
0.0313896
-0.00150157
0.0327576
-0.00139853
0.0340371
-0.00130743
0.0352295
-0.00121937
0.0363427
-0.00114167
0.0373766
-0.00106634
0.0383396
-0.000999363
0.0392315
-0.000933647
0.0400605
-0.000874498
0.0408272
-0.000815737
0.0415396
-0.000762415
0.042197
-0.000709228
0.0428112
-0.000660994
0.0433767
-0.000613152
0.0439033
-0.000569453
0.0443901
-0.00052657
0.0448413
-0.000487263
0.0452561
-0.000448777
0.04564
-0.000413326
0.0459904
-0.000378658
0.0463131
-0.000346547
0.0466057
-0.000315295
0.0468726
-0.000286324
0.0471119
-0.000258354
0.0473276
-0.000232534
0.0475179
-0.000207812
0.0476862
-0.000185052
0.0478314
-0.000163298
0.0479562
-0.000143298
0.0480601
-0.000124199
0.0481461
-0.000106421
0.0482137
-8.93397e-05
0.0482659
-7.35187e-05
0.0483025
-5.73975e-05
0.0483246
-4.25046e-05
0.048335
-2.78954e-05
0.0483323
-1.35255e-05
0.0483172
1.5498e-06
0.0482937
1.28934e-05
0.0482582
2.70711e-05
0.0482088
4.42709e-05
0.0481393
6.58894e-05
0.0480424
9.62179e-05
0.000131373
0.0635296
0.0601988
0.0490922
0.0306295
0.0418819
0.014144
0.0390305
0.00562055
0.0378993
0.00130442
0.0369209
-0.000925536
0.0362468
-0.00150986
0.0365911
-0.00156394
0.0373779
-0.0012013
0.0381128
-0.00067684
0.0386466
-0.00029866
0.0388524
-7.09162e-05
0.0388526
3.29167e-05
0.0387486
2.39596e-05
0.0386252
-7.55601e-06
0.038565
-4.19132e-05
0.0385444
-2.33418e-05
0.0385749
5.67569e-05
0.0385406
0.000294695
0.0382395
0.000822514
0.0374826
0.00197956
0.0355399
0.00470703
0.0296528
0.0119362
0.0229919
0.0147092
0.0171019
0.0130517
0.0119472
0.0115722
0.00718554
0.00992136
0.00283688
0.00827706
-0.00145198
0.00687687
-0.00549878
0.00542932
-0.00861072
0.00409461
-0.0107557
0.00276477
-0.011786
0.00125974
-0.0116193
-0.000347628
-0.0103318
-0.00202041
-0.00830305
-0.00352631
-0.00565558
-0.00494959
-0.00245683
-0.00614092
0.00109767
-0.00695756
0.00455815
-0.00713368
0.00799587
-0.00713616
0.0112734
-0.00695809
0.0143721
-0.00681225
0.0173074
-0.00650755