/*--------------------------------*- C++ -*----------------------------------*\
  =========                 |
  \\      /  F ield         | OpenFOAM: The Open Source CFD Toolbox
   \\    /   O peration     | Website:  https://openfoam.org
    \\  /    A nd           | Version:  13
     \\/     M anipulation  |
\*---------------------------------------------------------------------------*/
FoamFile
{
    format      ascii;
    class       volVectorField;
    location    "3.5";
    object      U;
}
// * * * * * * * * * * * * * * * * * * * * * * * * * * * * * * * * * * * * * //

dimensions      [0 1 -1 0 0 0 0];

internalField   nonuniform List<vector> 
5250
(
(3 -2.12285e-09 0)
(2.99999 1.36727e-07 0)
(2.99997 2.54526e-08 0)
(2.99991 1.37571e-06 0)
(2.99978 5.2209e-07 0)
(2.99947 8.06102e-06 0)
(2.99869 6.5858e-06 0)
(2.99678 4.18521e-05 0)
(2.99199 5.98785e-05 0)
(2.98008 0.000212054 0)
(2.94909 0.000441712 0)
(2.86444 0.00126237 0)
(2.61929 0.00338332 0)
(1.89793 0.00968845 0)
(0.881532 0.026555 0)
(0.432889 0.0243518 0)
(0.533174 0.0243761 0)
(0.561059 0.0262037 0)
(0.506118 0.0280582 0)
(0.41505 0.0299576 0)
(0.330253 0.0321902 0)
(0.261711 0.0348158 0)
(0.193329 0.0375894 0)
(0.115761 0.0408194 0)
(0.0487899 0.0445999 0)
(3 3.8047e-08 0)
(2.99999 2.29338e-07 0)
(2.99997 7.80862e-07 0)
(2.99991 2.25447e-06 0)
(2.99979 5.92676e-06 0)
(2.99948 1.45326e-05 0)
(2.99871 3.90007e-05 0)
(2.99682 8.83441e-05 0)
(2.99214 0.000241622 0)
(2.98039 0.000556791 0)
(2.94999 0.00147848 0)
(2.8668 0.00377081 0)
(2.62646 0.0104994 0)
(1.91639 0.0300702 0)
(0.892397 0.0809317 0)
(0.429757 0.0703754 0)
(0.533426 0.0671878 0)
(0.562487 0.0701459 0)
(0.507234 0.0732046 0)
(0.416153 0.0764451 0)
(0.331274 0.080013 0)
(0.26208 0.0839448 0)
(0.192626 0.0875736 0)
(0.113811 0.0910791 0)
(0.0464548 0.0936136 0)
(3 5.42378e-08 0)
(2.99999 3.99337e-07 0)
(2.99997 1.25472e-06 0)
(2.99992 3.86726e-06 0)
(2.99979 9.45187e-06 0)
(2.9995 2.59122e-05 0)
(2.99875 5.9022e-05 0)
(2.99695 0.000164823 0)
(2.99238 0.000362195 0)
(2.98111 0.00100978 0)
(2.95178 0.0023747 0)
(2.87193 0.00644465 0)
(2.64136 0.0175492 0)
(1.95816 0.0508828 0)
(0.918257 0.138578 0)
(0.427836 0.119676 0)
(0.537847 0.11299 0)
(0.569588 0.118079 0)
(0.514158 0.12387 0)
(0.423292 0.130619 0)
(0.338288 0.137408 0)
(0.268197 0.144541 0)
(0.197282 0.151387 0)
(0.116488 0.157555 0)
(0.0468634 0.160854 0)
(3 7.33128e-08 0)
(2.99999 5.31701e-07 0)
(2.99997 1.72389e-06 0)
(2.99992 5.20687e-06 0)
(2.99981 1.30433e-05 0)
(2.99952 3.52444e-05 0)
(2.99883 8.1671e-05 0)
(2.99708 0.000221223 0)
(2.99284 0.000503943 0)
(2.98207 0.00134512 0)
(2.95451 0.00324503 0)
(2.8795 0.00867426 0)
(2.66367 0.0237182 0)
(2.02192 0.0688127 0)
(0.960113 0.191275 0)
(0.429908 0.168251 0)
(0.547732 0.158364 0)
(0.583506 0.165356 0)
(0.528111 0.173993 0)
(0.437491 0.184866 0)
(0.351832 0.195376 0)
(0.280443 0.20629 0)
(0.207473 0.217123 0)
(0.123411 0.226808 0)
(0.0494839 0.231435 0)
(3 9.95763e-08 0)
(2.99999 6.01671e-07 0)
(2.99997 2.16134e-06 0)
(2.99993 5.90242e-06 0)
(2.99982 1.60318e-05 0)
(2.99956 3.96032e-05 0)
(2.9989 0.00010083 0)
(2.9973 0.000247575 0)
(2.99332 0.00062223 0)
(2.98339 0.00154357 0)
(2.95788 0.00391738 0)
(2.88908 0.0102177 0)
(2.69182 0.028212 0)
(2.10487 0.0818549 0)
(1.0194 0.234637 0)
(0.442566 0.218272 0)
(0.565127 0.206885 0)
(0.605127 0.214265 0)
(0.549986 0.224604 0)
(0.459577 0.239212 0)
(0.372534 0.253651 0)
(0.299224 0.268824 0)
(0.223413 0.284356 0)
(0.134602 0.298586 0)
(0.0542362 0.305575 0)
(3 9.13891e-08 0)
(2.99999 6.87231e-07 0)
(2.99997 2.0143e-06 0)
(2.99993 6.74261e-06 0)
(2.99984 1.50442e-05 0)
(2.99959 4.37764e-05 0)
(2.999 9.7773e-05 0)
(2.99751 0.000266697 0)
(2.99392 0.000621369 0)
(2.98482 0.00162583 0)
(2.96175 0.00399154 0)
(2.89983 0.0105239 0)
(2.72395 0.0287129 0)
(2.20294 0.0830098 0)
(1.10466 0.243799 0)
(0.483236 0.260034 0)
(0.596655 0.257362 0)
(0.637289 0.265303 0)
(0.582159 0.276878 0)
(0.49191 0.295119 0)
(0.402644 0.314187 0)
(0.326352 0.33452 0)
(0.246708 0.356073 0)
(0.15144 0.376887 0)
(0.061962 0.388599 0)
(3 1.07372e-07 0)
(2.99999 5.57846e-07 0)
(2.99998 2.25745e-06 0)
(2.99994 5.46025e-06 0)
(2.99985 1.66441e-05 0)
(2.99963 3.67296e-05 0)
(2.99909 0.000103769 0)
(2.99774 0.000230186 0)
(2.99445 0.000622905 0)
(2.9862 0.00144405 0)
(2.96532 0.00375985 0)
(2.90967 0.00945641 0)
(2.7528 0.0256981 0)
(2.28946 0.072871 0)
(1.19918 0.215524 0)
(0.526201 0.294204 0)
(0.622701 0.312151 0)
(0.664361 0.318152 0)
(0.614458 0.329989 0)
(0.528944 0.352439 0)
(0.439879 0.377384 0)
(0.361781 0.404308 0)
(0.278792 0.433844 0)
(0.176397 0.464651 0)
(0.0744999 0.486193 0)
(3 9.06035e-08 0)
(2.99999 5.63624e-07 0)
(2.99998 1.97291e-06 0)
(2.99994 5.49017e-06 0)
(2.99986 1.46639e-05 0)
(2.99966 3.66796e-05 0)
(2.99917 9.16621e-05 0)
(2.99794 0.000227183 0)
(2.99493 0.000555653 0)
(2.98743 0.00138274 0)
(2.96841 0.00341088 0)
(2.91813 0.00873235 0)
(2.77661 0.0232031 0)
(2.35956 0.0650718 0)
(1.30457 0.192024 0)
(0.579046 0.337273 0)
(0.635517 0.371383 0)
(0.673888 0.369195 0)
(0.638469 0.381704 0)
(0.564763 0.408419 0)
(0.480705 0.441434 0)
(0.404226 0.477392 0)
(0.320951 0.518211 0)
(0.213315 0.564438 0)
(0.0957069 0.607197 0)
(3 8.92046e-08 0)
(2.99999 5.71068e-07 0)
(2.99998 1.93629e-06 0)
(2.99995 5.56741e-06 0)
(2.99988 1.4316e-05 0)
(2.99969 3.67867e-05 0)
(2.99925 9.00714e-05 0)
(2.99812 0.000225633 0)
(2.99542 0.000550321 0)
(2.98858 0.0013707 0)
(2.97144 0.00338157 0)
(2.92615 0.00863071 0)
(2.7995 0.0228233 0)
(2.42756 0.0639045 0)
(1.43514 0.188159 0)
(0.661968 0.385795 0)
(0.643308 0.416041 0)
(0.672838 0.413535 0)
(0.657611 0.431075 0)
(0.599739 0.461125 0)
(0.525408 0.503572 0)
(0.454555 0.551219 0)
(0.376195 0.606715 0)
(0.270871 0.678575 0)
(0.13416 0.766605 0)
(3 9.62148e-08 0)
(2.99999 5.63262e-07 0)
(2.99998 2.07725e-06 0)
(2.99996 5.50125e-06 0)
(2.99989 1.52674e-05 0)
(2.99972 3.68429e-05 0)
(2.99932 9.47762e-05 0)
(2.99833 0.000228903 0)
(2.99589 0.000573198 0)
(2.98979 0.00140399 0)
(2.97446 0.0034914 0)
(2.93432 0.00885764 0)
(2.8226 0.023341 0)
(2.49661 0.0652048 0)
(1.58876 0.190487 0)
(0.764041 0.434342 0)
(0.650852 0.448926 0)
(0.678991 0.451451 0)
(0.677861 0.475414 0)
(0.63524 0.509963 0)
(0.575409 0.560781 0)
(0.514577 0.620685 0)
(0.451101 0.697754 0)
(0.3664 0.814895 0)
(0.206803 1.02638 0)
(3 8.78015e-08 0)
(2.99999 6.20667e-07 0)
(2.99998 1.94023e-06 0)
(2.99996 6.06779e-06 0)
(2.9999 1.45657e-05 0)
(2.99976 3.98382e-05 0)
(2.99941 9.36436e-05 0)
(2.99852 0.000243226 0)
(2.9964 0.000582239 0)
(2.99101 0.00147367 0)
(2.97765 0.00361084 0)
(2.94269 0.00923834 0)
(2.84643 0.0241438 0)
(2.56699 0.0672563 0)
(1.7638 0.195248 0)
(0.884647 0.483081 0)
(0.660849 0.484021 0)
(0.692431 0.486454 0)
(0.703997 0.511893 0)
(0.674703 0.552405 0)
(0.630856 0.608875 0)
(0.588929 0.680215 0)
(0.560032 0.777855 0)
(0.560566 0.926809 0)
(0.603008 1.17841 0)
(3 1.01291e-07 0)
(2.99999 5.95102e-07 0)
(2.99999 2.16138e-06 0)
(2.99997 5.81689e-06 0)
(2.99992 1.61057e-05 0)
(2.99979 3.85768e-05 0)
(2.99949 0.000101769 0)
(2.99873 0.000239156 0)
(2.99691 0.00062069 0)
(2.99231 0.00148168 0)
(2.98095 0.00378973 0)
(2.9514 0.00942446 0)
(2.87108 0.0248393 0)
(2.63953 0.0685745 0)
(1.96018 0.198735 0)
(1.02782 0.525913 0)
(0.682696 0.523582 0)
(0.71528 0.5241 0)
(0.737674 0.543663 0)
(0.720541 0.587333 0)
(0.692405 0.647209 0)
(0.673254 0.726178 0)
(0.680711 0.832732 0)
(0.744256 0.979375 0)
(0.900395 1.17207 0)
(3 9.43838e-08 0)
(3 5.81409e-07 0)
(2.99999 2.04053e-06 0)
(2.99997 5.69942e-06 0)
(2.99993 1.52034e-05 0)
(2.99983 3.80421e-05 0)
(2.99957 9.63769e-05 0)
(2.99895 0.000236664 0)
(2.99743 0.000593375 0)
(2.99365 0.00146201 0)
(2.98427 0.00366631 0)
(2.96025 0.00921788 0)
(2.89581 0.0240476 0)
(2.71292 0.0659972 0)
(2.17221 0.191127 0)
(1.2044 0.537787 0)
(0.738482 0.565369 0)
(0.755881 0.57196 0)
(0.781779 0.578494 0)
(0.775848 0.618155 0)
(0.760188 0.678176 0)
(0.76084 0.756978 0)
(0.794089 0.858266 0)
(0.884441 0.981285 0)
(1.06343 1.10298 0)
(3 7.95465e-08 0)
(3 5.19274e-07 0)
(2.99999 1.73785e-06 0)
(2.99998 5.07343e-06 0)
(2.99994 1.29253e-05 0)
(2.99986 3.36823e-05 0)
(2.99966 8.21257e-05 0)
(2.99915 0.000207467 0)
(2.99793 0.000505617 0)
(2.99487 0.00126557 0)
(2.98741 0.00310427 0)
(2.96839 0.00782722 0)
(2.91853 0.0199951 0)
(2.77975 0.0539651 0)
(2.37617 0.15374 0)
(1.42342 0.455524 0)
(0.8402 0.589536 0)
(0.814957 0.615468 0)
(0.831859 0.621578 0)
(0.838754 0.650739 0)
(0.83258 0.704402 0)
(0.844743 0.775535 0)
(0.891601 0.861799 0)
(0.988077 0.957319 0)
(1.15738 1.03527 0)
(3 7.36608e-08 0)
(3 4.16244e-07 0)
(2.99999 1.55367e-06 0)
(2.99998 4.05614e-06 0)
(2.99995 1.14252e-05 0)
(2.99989 2.68236e-05 0)
(2.99972 7.13767e-05 0)
(2.99931 0.000164011 0)
(2.99831 0.000430827 0)
(2.99582 0.000993938 0)
(2.98974 0.00257472 0)
(2.97432 0.00612408 0)
(2.93424 0.0158159 0)
(2.82358 0.0410295 0)
(2.50314 0.114175 0)
(1.64115 0.338978 0)
(0.941327 0.624832 0)
(0.855045 0.656478 0)
(0.870753 0.668779 0)
(0.890892 0.685205 0)
(0.899077 0.727714 0)
(0.920008 0.7872 0)
(0.972488 0.856558 0)
(1.06657 0.928284 0)
(1.21776 0.981784 0)
(3 5.82694e-08 0)
(3 3.83648e-07 0)
(2.99999 1.26806e-06 0)
(2.99998 3.74173e-06 0)
(2.99996 9.41876e-06 0)
(2.99991 2.45092e-05 0)
(2.99977 5.93777e-05 0)
(2.99945 0.00014927 0)
(2.99862 0.000363328 0)
(2.99666 0.000896271 0)
(2.99169 0.00221094 0)
(2.97942 0.00546 0)
(2.94751 0.01374 0)
(2.86063 0.035796 0)
(2.61088 0.0985452 0)
(1.89545 0.287069 0)
(1.09372 0.665348 0)
(0.885944 0.69179 0)
(0.898218 0.704719 0)
(0.928956 0.712876 0)
(0.954724 0.745738 0)
(0.984458 0.794407 0)
(1.03907 0.849462 0)
(1.12781 0.903136 0)
(1.2604 0.941333 0)
(3 4.91901e-08 0)
(3 3.38728e-07 0)
(3 1.0952e-06 0)
(2.99999 3.30647e-06 0)
(2.99997 8.17434e-06 0)
(2.99993 2.1826e-05 0)
(2.99982 5.15313e-05 0)
(2.99956 0.000134558 0)
(2.99894 0.00031599 0)
(2.99736 0.000818579 0)
(2.99354 0.00194524 0)
(2.98392 0.00498344 0)
(2.95951 0.0122931 0)
(2.89392 0.0322417 0)
(2.70805 0.0878707 0)
(2.16084 0.254458 0)
(1.29258 0.674861 0)
(0.939921 0.723085 0)
(0.934284 0.732828 0)
(0.965728 0.736857 0)
(1.00444 0.758345 0)
(1.04087 0.797558 0)
(1.09521 0.841952 0)
(1.1773 0.882966 0)
(1.29315 0.910894 0)
(3 4.37109e-08 0)
(3 2.68171e-07 0)
(3 9.40413e-07 0)
(2.99999 2.61959e-06 0)
(2.99998 6.97994e-06 0)
(2.99994 1.7312e-05 0)
(2.99987 4.40158e-05 0)
(2.99967 0.000106257 0)
(2.99919 0.000268552 0)
(2.99802 0.000646507 0)
(2.99516 0.00163079 0)
(2.98804 0.00396766 0)
(2.97024 0.0100144 0)
(2.92361 0.02551 0)
(2.79554 0.0685755 0)
(2.42419 0.195508 0)
(1.56316 0.567534 0)
(1.05167 0.7309 0)
(0.994498 0.755658 0)
(1.01148 0.765101 0)
(1.05279 0.774292 0)
(1.09423 0.801954 0)
(1.14598 0.836426 0)
(1.22003 0.867815 0)
(1.32089 0.888341 0)
(3 3.42933e-08 0)
(3 2.1137e-07 0)
(3 7.42792e-07 0)
(2.99999 2.05424e-06 0)
(2.99998 5.48212e-06 0)
(2.99996 1.35641e-05 0)
(2.9999 3.41048e-05 0)
(2.99975 8.3092e-05 0)
(2.99939 0.000204802 0)
(2.99849 0.000500688 0)
(2.99631 0.0012239 0)
(2.9909 0.00301282 0)
(2.97745 0.00739341 0)
(2.94261 0.018616 0)
(2.8479 0.0483235 0)
(2.57664 0.133078 0)
(1.83607 0.395148 0)
(1.17516 0.737374 0)
(1.0429 0.776623 0)
(1.0498 0.793843 0)
(1.09067 0.796074 0)
(1.13912 0.810648 0)
(1.19045 0.834976 0)
(1.25757 0.858175 0)
(1.34577 0.872788 0)
(3 2.78456e-08 0)
(3 1.67761e-07 0)
(3 6.01484e-07 0)
(2.99999 1.63319e-06 0)
(2.99999 4.43848e-06 0)
(2.99997 1.08576e-05 0)
(2.99992 2.76719e-05 0)
(2.99981 6.70665e-05 0)
(2.99954 0.000166608 0)
(2.99887 0.000408362 0)
(2.99725 0.00100083 0)
(2.99318 0.0024852 0)
(2.98322 0.00609045 0)
(2.95758 0.0153731 0)
(2.88906 0.0395756 0)
(2.69507 0.108047 0)
(2.12913 0.314318 0)
(1.35921 0.756272 0)
(1.09349 0.808793 0)
(1.08568 0.820434 0)
(1.12056 0.819065 0)
(1.17473 0.820949 0)
(1.22872 0.836039 0)
(1.29085 0.852595 0)
(1.36866 0.86261 0)
(3 2.19849e-08 0)
(3 1.30481e-07 0)
(3 4.67802e-07 0)
(3 1.27188e-06 0)
(2.99999 3.45603e-06 0)
(2.99998 8.39282e-06 0)
(2.99994 2.17453e-05 0)
(2.99986 5.13637e-05 0)
(2.99967 0.000132054 0)
(2.99919 0.000310652 0)
(2.99804 0.0007964 0)
(2.99515 0.00189001 0)
(2.98818 0.00481114 0)
(2.97051 0.0117274 0)
(2.92473 0.0303691 0)
(2.79971 0.0808706 0)
(2.43671 0.231722 0)
(1.64165 0.644682 0)
(1.20192 0.808803 0)
(1.14336 0.834518 0)
(1.15933 0.841179 0)
(1.20933 0.835978 0)
(1.26515 0.841055 0)
(1.32271 0.850805 0)
(1.39133 0.856678 0)
(3 1.60291e-08 0)
(3 9.98381e-08 0)
(3 3.4276e-07 0)
(3 9.714e-07 0)
(2.99999 2.53373e-06 0)
(2.99998 6.33276e-06 0)
(2.99996 1.59131e-05 0)
(2.9999 3.81685e-05 0)
(2.99976 9.64335e-05 0)
(2.99942 0.000226695 0)
(2.99857 0.000577642 0)
(2.99653 0.00135125 0)
(2.99141 0.00344295 0)
(2.97886 0.00820996 0)
(2.94643 0.0209355 0)
(2.85922 0.0537407 0)
(2.6115 0.14781 0)
(1.93947 0.435054 0)
(1.33283 0.794907 0)
(1.19557 0.845359 0)
(1.19598 0.864424 0)
(1.2375 0.859447 0)
(1.29519 0.852337 0)
(1.35143 0.85343 0)
(1.41346 0.854901 0)
(3 1.18373e-08 0)
(3 7.52913e-08 0)
(3 2.57925e-07 0)
(3 7.33707e-07 0)
(3 1.90316e-06 0)
(2.99999 4.83199e-06 0)
(2.99997 1.18468e-05 0)
(2.99993 2.94762e-05 0)
(2.99983 7.13091e-05 0)
(2.99959 0.000177086 0)
(2.99898 0.000426922 0)
(2.99753 0.00106131 0)
(2.9939 0.00257255 0)
(2.98506 0.00640356 0)
(2.96246 0.0158477 0)
(2.90287 0.0407732 0)
(2.73653 0.10973 0)
(2.25202 0.318015 0)
(1.53964 0.766137 0)
(1.26308 0.862524 0)
(1.23768 0.883073 0)
(1.26158 0.882849 0)
(1.31584 0.869148 0)
(1.37503 0.861511 0)
(1.43424 0.857885 0)
(3 8.72437e-09 0)
(3 5.56447e-08 0)
(3 1.90368e-07 0)
(3 5.41634e-07 0)
(3 1.40508e-06 0)
(2.99999 3.56697e-06 0)
(2.99998 8.74137e-06 0)
(2.99995 2.17667e-05 0)
(2.99988 5.26119e-05 0)
(2.99972 0.000130675 0)
(2.9993 0.000315095 0)
(2.99831 0.000782201 0)
(2.99586 0.00189511 0)
(2.98992 0.00470307 0)
(2.97502 0.0115828 0)
(2.93684 0.0293813 0)
(2.83381 0.077589 0)
(2.53742 0.218802 0)
(1.83957 0.612472 0)
(1.38336 0.854507 0)
(1.29517 0.888629 0)
(1.2975 0.900081 0)
(1.33899 0.888277 0)
(1.39666 0.872648 0)
(1.45388 0.864031 0)
(3 6.07937e-09 0)
(3 4.08513e-08 0)
(3 1.34286e-07 0)
(3 3.96414e-07 0)
(3 9.92336e-07 0)
(2.99999 2.59328e-06 0)
(2.99999 6.17643e-06 0)
(2.99997 1.57245e-05 0)
(2.99992 3.71778e-05 0)
(2.99981 9.34772e-05 0)
(2.99952 0.000222745 0)
(2.99885 0.000553933 0)
(2.99716 0.00133391 0)
(2.99313 0.00329341 0)
(2.983 0.00805566 0)
(2.95753 0.0200785 0)
(2.88982 0.0515995 0)
(2.70055 0.139586 0)
(2.16644 0.407816 0)
(1.55125 0.835157 0)
(1.35267 0.902489 0)
(1.33494 0.915476 0)
(1.35917 0.907954 0)
(1.41309 0.88742 0)
(1.47162 0.872449 0)
(3 4.36814e-09 0)
(3 2.82167e-08 0)
(3 9.61458e-08 0)
(3 2.7375e-07 0)
(3 7.08289e-07 0)
(3 1.80195e-06 0)
(2.99999 4.36699e-06 0)
(2.99998 1.10004e-05 0)
(2.99995 2.60254e-05 0)
(2.99987 6.58313e-05 0)
(2.99969 0.000154625 0)
(2.99924 0.000391875 0)
(2.99815 0.000921322 0)
(2.99552 0.00232988 0)
(2.989 0.00555941 0)
(2.97294 0.0140059 0)
(2.93153 0.0350455 0)
(2.82029 0.093241 0)
(2.49901 0.265776 0)
(1.83138 0.690305 0)
(1.45727 0.881387 0)
(1.38969 0.912976 0)
(1.3922 0.920663 0)
(1.43293 0.904779 0)
(1.48903 0.881929 0)
(3 3.15431e-09 0)
(3 1.87615e-08 0)
(3 6.75373e-08 0)
(3 1.82154e-07 0)
(3 4.95094e-07 0)
(3 1.19635e-06 0)
(2.99999 3.04877e-06 0)
(2.99999 7.25624e-06 0)
(2.99996 1.8077e-05 0)
(2.99991 4.33199e-05 0)
(2.99979 0.00010626 0)
(2.99949 0.000257439 0)
(2.99878 0.000624107 0)
(2.99699 0.00153019 0)
(2.99272 0.003685 0)
(2.98204 0.00912966 0)
(2.95519 0.0224223 0)
(2.88401 0.0578012 0)
(2.68496 0.156214 0)
(2.14494 0.447411 0)
(1.59988 0.845476 0)
(1.44364 0.914169 0)
(1.42752 0.929672 0)
(1.4501 0.922444 0)
(1.50095 0.897296 0)
(3 2.08769e-09 0)
(3 1.30022e-08 0)
(3 4.49468e-08 0)
(3 1.26131e-07 0)
(3 3.30487e-07 0)
(3 8.22654e-07 0)
(3 2.05055e-06 0)
(2.99999 4.95387e-06 0)
(2.99998 1.22535e-05 0)
(2.99994 2.93645e-05 0)
(2.99986 7.26139e-05 0)
(2.99967 0.00017363 0)
(2.99921 0.000429357 0)
(2.99807 0.00103006 0)
(2.99532 0.00254229 0)
(2.98853 0.00616747 0)
(2.9718 0.0152779 0)
(2.92857 0.0385102 0)
(2.81214 0.10175 0)
(2.47654 0.289623 0)
(1.8549 0.719938 0)
(1.53256 0.896355 0)
(1.47423 0.92836 0)
(1.477 0.935449 0)
(1.51532 0.918061 0)
(3 1.36493e-09 0)
(3 8.82919e-09 0)
(3 2.96472e-08 0)
(3 8.5515e-08 0)
(3 2.17833e-07 0)
(3 5.56516e-07 0)
(3 1.35042e-06 0)
(2.99999 3.34365e-06 0)
(2.99999 8.0651e-06 0)
(2.99996 1.97423e-05 0)
(2.99991 4.77592e-05 0)
(2.99979 0.000116085 0)
(2.99949 0.000282206 0)
(2.99875 0.000683219 0)
(2.997 0.00167022 0)
(2.99264 0.00404612 0)
(2.98207 0.0099605 0)
(2.95518 0.02465 0)
(2.88461 0.0633664 0)
(2.68687 0.172336 0)
(2.16771 0.486097 0)
(1.67245 0.859738 0)
(1.52789 0.929778 0)
(1.50979 0.94493 0)
(1.52861 0.937749 0)
(3 9.33361e-10 0)
(3 5.75176e-09 0)
(3 1.99992e-08 0)
(3 5.57586e-08 0)
(3 1.4633e-07 0)
(3 3.63106e-07 0)
(3 9.05334e-07 0)
(3 2.1779e-06 0)
(2.99999 5.40065e-06 0)
(2.99998 1.28493e-05 0)
(2.99994 3.18493e-05 0)
(2.99987 7.57037e-05 0)
(2.99968 0.000187255 0)
(2.99922 0.000446665 0)
(2.99813 0.00110003 0)
(2.99543 0.00264785 0)
(2.98894 0.00650438 0)
(2.97275 0.0159334 0)
(2.93142 0.0401724 0)
(2.82088 0.10563 0)
(2.50312 0.30044 0)
(1.92462 0.7229 0)
(1.61678 0.906438 0)
(1.55536 0.941382 0)
(1.55406 0.949019 0)
(3 5.76175e-10 0)
(3 3.81535e-09 0)
(3 1.26575e-08 0)
(3 3.69112e-08 0)
(3 9.29702e-08 0)
(3 2.39993e-07 0)
(3 5.72521e-07 0)
(3 1.43993e-06 0)
(2.99999 3.40145e-06 0)
(2.99999 8.45938e-06 0)
(2.99997 2.00785e-05 0)
(2.99992 4.94576e-05 0)
(2.9998 0.000118424 0)
(2.99951 0.000288325 0)
(2.99883 0.00069938 0)
(2.99714 0.00168568 0)
(2.99313 0.00413801 0)
(2.98312 0.0100056 0)
(2.95823 0.0249362 0)
(2.893 0.0633869 0)
(2.71144 0.171888 0)
(2.23685 0.47773 0)
(1.76115 0.859361 0)
(1.60966 0.938237 0)
(1.5865 0.95499 0)
(3 3.7492e-10 0)
(3 2.43676e-09 0)
(3 8.17558e-09 0)
(3 2.35439e-08 0)
(3 6.00124e-08 0)
(3 1.52576e-07 0)
(3 3.69466e-07 0)
(3 9.12903e-07 0)
(3 2.1894e-06 0)
(2.99999 5.35677e-06 0)
(2.99998 1.28777e-05 0)
(2.99995 3.12941e-05 0)
(2.99988 7.56129e-05 0)
(2.99971 0.000182411 0)
(2.99929 0.00044446 0)
(2.9983 0.00106549 0)
(2.99587 0.00261198 0)
(2.99004 0.00629744 0)
(2.97561 0.0155177 0)
(2.93915 0.0387483 0)
(2.84292 0.101253 0)
(2.56829 0.285312 0)
(2.02495 0.69297 0)
(1.70588 0.901917 0)
(1.63492 0.945647 0)
(3 2.44101e-10 0)
(3 1.49703e-09 0)
(3 5.22706e-09 0)
(3 1.44818e-08 0)
(3 3.81433e-08 0)
(3 9.38833e-08 0)
(3 2.33937e-07 0)
(3 5.5984e-07 0)
(3 1.37903e-06 0)
(2.99999 3.28222e-06 0)
(2.99999 8.04516e-06 0)
(2.99997 1.91514e-05 0)
(2.99993 4.67751e-05 0)
(2.99982 0.000111741 0)
(2.99957 0.000271201 0)
(2.99895 0.00065201 0)
(2.99749 0.00157454 0)
(2.99386 0.00381146 0)
(2.98516 0.00924383 0)
(2.96328 0.0226654 0)
(2.9069 0.0572544 0)
(2.75211 0.152439 0)
(2.33774 0.421575 0)
(1.86328 0.821526 0)
(1.69103 0.928796 0)
(3 1.47148e-10 0)
(3 9.49005e-10 0)
(3 3.18175e-09 0)
(3 9.17782e-09 0)
(3 2.32632e-08 0)
(3 5.92133e-08 0)
(3 1.43329e-07 0)
(3 3.513e-07 0)
(3 8.49452e-07 0)
(3 2.04467e-06 0)
(2.99999 4.9903e-06 0)
(2.99998 1.18524e-05 0)
(2.99996 2.92016e-05 0)
(2.99989 6.87637e-05 0)
(2.99974 0.000170593 0)
(2.99938 0.000400199 0)
(2.9985 0.000994641 0)
(2.99643 0.00234425 0)
(2.99128 0.00581952 0)
(2.97889 0.0139661 0)
(2.94748 0.0350872 0)
(2.86548 0.0900941 0)
(2.63351 0.249618 0)
(2.13561 0.632196 0)
(1.79683 0.888871 0)
(3 9.24788e-11 0)
(3 5.70105e-10 0)
(3 1.99868e-09 0)
(3 5.49838e-09 0)
(3 1.45649e-08 0)
(3 3.56467e-08 0)
(3 8.87294e-08 0)
(3 2.13395e-07 0)
(3 5.18548e-07 0)
(3 1.25311e-06 0)
(3 3.00034e-06 0)
(2.99999 7.3191e-06 0)
(2.99997 1.73243e-05 0)
(2.99994 4.26369e-05 0)
(2.99985 0.000100135 0)
(2.99963 0.000247518 0)
(2.99911 0.000580605 0)
(2.99788 0.00143511 0)
(2.99484 0.00338534 0)
(2.9876 0.00835389 0)
(2.96949 0.0201536 0)
(2.92353 0.050848 0)
(2.79959 0.133277 0)
(2.45988 0.37076 0)
(1.98958 0.772156 0)
(3 5.7042e-11 0)
(3 3.46533e-10 0)
(3 1.22075e-09 0)
(3 3.3462e-09 0)
(3 8.88436e-09 0)
(3 2.16978e-08 0)
(3 5.41623e-08 0)
(3 1.29329e-07 0)
(3 3.17283e-07 0)
(3 7.56335e-07 0)
(3 1.83874e-06 0)
(2.99999 4.40857e-06 0)
(2.99998 1.06168e-05 0)
(2.99996 2.57036e-05 0)
(2.99991 6.12726e-05 0)
(2.99979 0.000149488 0)
(2.99949 0.000354495 0)
(2.99876 0.000869368 0)
(2.99704 0.00205941 0)
(2.99283 0.00506883 0)
(2.98267 0.0121545 0)
(2.95722 0.0302526 0)
(2.89157 0.0766546 0)
(2.7085 0.208504 0)
(2.27702 0.544842 0)
(3 3.28998e-11 0)
(3 2.12228e-10 0)
(3 7.11981e-10 0)
(3 2.04528e-09 0)
(3 5.19903e-09 0)
(3 1.31415e-08 0)
(3 3.18301e-08 0)
(3 7.76429e-08 0)
(3 1.87202e-07 0)
(3 4.49211e-07 0)
(3 1.09126e-06 0)
(3 2.58798e-06 0)
(2.99999 6.3316e-06 0)
(2.99998 1.49212e-05 0)
(2.99995 3.66479e-05 0)
(2.99988 8.61231e-05 0)
(2.99971 0.00021154 0)
(2.9993 0.000498455 0)
(2.99834 0.00122139 0)
(2.996 0.00289492 0)
(2.99042 0.00709438 0)
(2.97675 0.0170796 0)
(2.94263 0.0427297 0)
(2.85336 0.11028 0)
(2.60501 0.305877 0)
(3 1.93885e-11 0)
(3 1.24377e-10 0)
(3 4.22288e-10 0)
(3 1.19647e-09 0)
(3 3.073e-09 0)
(3 7.70923e-09 0)
(3 1.86469e-08 0)
(3 4.57431e-08 0)
(3 1.08476e-07 0)
(3 2.65533e-07 0)
(3 6.25505e-07 0)
(3 1.53059e-06 0)
(2.99999 3.60138e-06 0)
(2.99999 8.77629e-06 0)
(2.99997 2.07541e-05 0)
(2.99993 5.02183e-05 0)
(2.99983 0.000119433 0)
(2.9996 0.000286892 0)
(2.99904 0.000687347 0)
(2.99772 0.00163951 0)
(2.99447 0.00395823 0)
(2.98676 0.00946061 0)
(2.96753 0.0231194 0)
(2.91893 0.0573811 0)
(2.78758 0.151162 0)
(3 1.16664e-11 0)
(3 7.15016e-11 0)
(3 2.50237e-10 0)
(3 6.89056e-10 0)
(3 1.8184e-09 0)
(3 4.43837e-09 0)
(3 1.10412e-08 0)
(3 2.6269e-08 0)
(3 6.41167e-08 0)
(3 1.52684e-07 0)
(3 3.68475e-07 0)
(3 8.81989e-07 0)
(3 2.11098e-06 0)
(2.99999 5.08964e-06 0)
(2.99998 1.2083e-05 0)
(2.99996 2.93505e-05 0)
(2.99991 6.91951e-05 0)
(2.99978 0.00016891 0)
(2.99946 0.000397366 0)
(2.99873 0.000971833 0)
(2.99693 0.0022923 0)
(2.99268 0.00560829 0)
(2.98224 0.0134404 0)
(2.95652 0.0332 0)
(2.89015 0.0841057 0)
(3 6.62617e-12 0)
(3 4.1271e-11 0)
(3 1.43168e-10 0)
(3 3.96928e-10 0)
(3 1.03943e-09 0)
(3 2.55189e-09 0)
(3 6.29115e-09 0)
(3 1.50748e-08 0)
(3 3.64758e-08 0)
(3 8.73919e-08 0)
(3 2.09102e-07 0)
(3 5.03067e-07 0)
(3 1.19676e-06 0)
(3 2.89267e-06 0)
(2.99999 6.83675e-06 0)
(2.99998 1.66017e-05 0)
(2.99995 3.91185e-05 0)
(2.99988 9.51238e-05 0)
(2.99971 0.000224039 0)
(2.9993 0.000544144 0)
(2.99833 0.00128717 0)
(2.99604 0.00311705 0)
(2.99046 0.00745066 0)
(2.97709 0.01811 0)
(2.94363 0.044702 0)
(3 3.7564e-12 0)
(3 2.36446e-11 0)
(3 8.05403e-11 0)
(3 2.27555e-10 0)
(3 5.83713e-10 0)
(3 1.45534e-09 0)
(3 3.54633e-09 0)
(3 8.52252e-09 0)
(3 2.06761e-08 0)
(3 4.88379e-08 0)
(3 1.18984e-07 0)
(3 2.78934e-07 0)
(3 6.81032e-07 0)
(3 1.59247e-06 0)
(2.99999 3.88265e-06 0)
(2.99999 9.09411e-06 0)
(2.99997 2.20817e-05 0)
(2.99993 5.19754e-05 0)
(2.99984 0.000125172 0)
(2.99962 0.000296922 0)
(2.99907 0.000709611 0)
(2.99781 0.0016967 0)
(2.99471 0.00403226 0)
(2.98739 0.00974357 0)
(2.96922 0.0234222 0)
(3 2.13246e-12 0)
(3 1.32555e-11 0)
(3 4.60083e-11 0)
(3 1.27613e-10 0)
(3 3.33295e-10 0)
(3 8.17602e-10 0)
(3 2.01498e-09 0)
(3 4.80089e-09 0)
(3 1.16794e-08 0)
(3 2.75891e-08 0)
(3 6.67828e-08 0)
(3 1.58058e-07 0)
(3 3.80371e-07 0)
(3 9.03351e-07 0)
(3 2.16334e-06 0)
(2.99999 5.16572e-06 0)
(2.99998 1.22921e-05 0)
(2.99996 2.94958e-05 0)
(2.99991 6.98457e-05 0)
(2.99979 0.000168503 0)
(2.9995 0.00039727 0)
(2.99881 0.000961529 0)
(2.99716 0.0022705 0)
(2.99321 0.00550511 0)
(2.98369 0.0131596 0)
(3 1.2009e-12 0)
(3 7.35964e-12 0)
(3 2.56679e-11 0)
(3 7.06447e-11 0)
(3 1.8572e-10 0)
(3 4.53013e-10 0)
(3 1.11644e-09 0)
(3 2.66478e-09 0)
(3 6.42723e-09 0)
(3 1.53349e-08 0)
(3 3.65773e-08 0)
(3 8.78083e-08 0)
(3 2.07293e-07 0)
(3 5.01286e-07 0)
(3 1.17597e-06 0)
(3 2.85638e-06 0)
(2.99999 6.67112e-06 0)
(2.99998 1.62371e-05 0)
(2.99995 3.79512e-05 0)
(2.99989 9.20884e-05 0)
(2.99973 0.000215984 0)
(2.99937 0.000522224 0)
(2.99849 0.00123204 0)
(2.99645 0.00296544 0)
(2.99146 0.00706854 0)
(3 6.43596e-13 0)
(3 4.04277e-12 0)
(3 1.39451e-11 0)
(3 3.8959e-11 0)
(3 1.00747e-10 0)
(3 2.48176e-10 0)
(3 6.08751e-10 0)
(3 1.44376e-09 0)
(3 3.51742e-09 0)
(3 8.2307e-09 0)
(3 2.00498e-08 0)
(3 4.66941e-08 0)
(3 1.13583e-07 0)
(3 2.65209e-07 0)
(3 6.41007e-07 0)
(3 1.50607e-06 0)
(3 3.61041e-06 0)
(2.99999 8.55704e-06 0)
(2.99997 2.02899e-05 0)
(2.99994 4.85295e-05 0)
(2.99986 0.000114008 0)
(2.99966 0.000274827 0)
(2.99919 0.000640796 0)
(2.99807 0.00155319 0)
(2.99544 0.00362275 0)
(3 3.33873e-13 0)
(3 2.17213e-12 0)
(3 7.34138e-12 0)
(3 2.11255e-11 0)
(3 5.31547e-11 0)
(3 1.34816e-10 0)
(3 3.19286e-10 0)
(3 7.83863e-10 0)
(3 1.83822e-09 0)
(3 4.44277e-09 0)
(3 1.0455e-08 0)
(3 2.49957e-08 0)
(3 5.93074e-08 0)
(3 1.40169e-07 0)
(3 3.35385e-07 0)
(3 7.85555e-07 0)
(3 1.89318e-06 0)
(2.99999 4.40154e-06 0)
(2.99999 1.06477e-05 0)
(2.99997 2.46922e-05 0)
(2.99992 5.9681e-05 0)
(2.99981 0.000138777 0)
(2.99956 0.000333458 0)
(2.99893 0.000780821 0)
(2.99749 0.00186472 0)
(3 1.85043e-13 0)
(3 1.14624e-12 0)
(3 3.88225e-12 0)
(3 1.08233e-11 0)
(3 2.78363e-11 0)
(3 6.88554e-11 0)
(3 1.65307e-10 0)
(3 4.00125e-10 0)
(3 9.3711e-10 0)
(3 2.26562e-09 0)
(3 5.25152e-09 0)
(3 1.2683e-08 0)
(3 2.93259e-08 0)
(3 7.06184e-08 0)
(3 1.63485e-07 0)
(3 3.90909e-07 0)
(3 9.10524e-07 0)
(3 2.15376e-06 0)
(2.99999 5.06707e-06 0)
(2.99998 1.18126e-05 0)
(2.99995 2.80384e-05 0)
(2.99989 6.47172e-05 0)
(2.99973 0.000154226 0)
(2.99935 0.000353574 0)
(2.99846 0.000842654 0)
(3 9.72702e-14 0)
(3 5.90122e-13 0)
(3 1.95224e-12 0)
(3 5.33316e-12 0)
(3 1.38936e-11 0)
(3 3.31206e-11 0)
(3 8.18293e-11 0)
(3 1.90329e-10 0)
(3 4.57055e-10 0)
(3 1.06652e-09 0)
(3 2.50594e-09 0)
(3 5.91897e-09 0)
(3 1.36252e-08 0)
(3 3.25912e-08 0)
(3 7.36918e-08 0)
(3 1.7822e-07 0)
(3 3.96988e-07 0)
(3 9.6235e-07 0)
(2.99999 2.13373e-06 0)
(2.99999 5.13231e-06 0)
(2.99997 1.13855e-05 0)
(2.99992 2.69347e-05 0)
(2.9998 6.02131e-05 0)
(2.99951 0.00013877 0)
(2.9988 0.000313599 0)
(3 5.19525e-14 0)
(3 2.65608e-13 0)
(3 8.67882e-13 0)
(3 2.5066e-12 0)
(3 6.33367e-12 0)
(3 1.56552e-11 0)
(3 3.75507e-11 0)
(3 8.79461e-11 0)
(3 2.10056e-10 0)
(3 4.77387e-10 0)
(3 1.15035e-09 0)
(3 2.55873e-09 0)
(3 6.22994e-09 0)
(3 1.36042e-08 0)
(3 3.32657e-08 0)
(3 7.21564e-08 0)
(3 1.74603e-07 0)
(3 3.80388e-07 0)
(3 8.98699e-07 0)
(2.99999 1.99066e-06 0)
(2.99997 4.50981e-06 0)
(2.99993 1.02657e-05 0)
(2.99982 2.18969e-05 0)
(2.99956 5.14994e-05 0)
(2.99893 0.000102104 0)
(3 -3.39012e-15 0)
(3 1.02992e-13 0)
(3 3.44628e-13 0)
(3 1.0438e-12 0)
(3 2.55323e-12 0)
(3 6.87919e-12 0)
(3 1.51524e-11 0)
(3 3.84423e-11 0)
(3 8.47172e-11 0)
(3 2.04169e-10 0)
(3 4.63127e-10 0)
(3 1.05268e-09 0)
(3 2.51348e-09 0)
(3 5.30164e-09 0)
(3 1.35137e-08 0)
(3 2.62343e-08 0)
(3 7.12116e-08 0)
(3 1.27855e-07 0)
(3 3.64497e-07 0)
(2.99999 6.1675e-07 0)
(2.99997 1.77788e-06 0)
(2.99993 2.92769e-06 0)
(2.99983 8.13692e-06 0)
(2.99957 1.3364e-05 0)
(2.99897 3.38945e-05 0)
(3 -9.86014e-15 0)
(3 2.77777e-14 0)
(3 8.30949e-14 0)
(3 3.24065e-13 0)
(3 5.98715e-13 0)
(3 2.01986e-12 0)
(3 3.6262e-12 0)
(3 1.13739e-11 0)
(3 2.05524e-11 0)
(3 6.01476e-11 0)
(3 1.13517e-10 0)
(3 2.97702e-10 0)
(3 6.36473e-10 0)
(3 1.39767e-09 0)
(3 3.52902e-09 0)
(3 6.24263e-09 0)
(3 1.93725e-08 0)
(3 2.60659e-08 0)
(3 1.02873e-07 0)
(2.99999 9.85714e-08 0)
(2.99997 5.31097e-07 0)
(2.99993 2.90851e-07 0)
(2.99983 2.57874e-06 0)
(2.99958 5.40468e-07 0)
(2.99896 1.09489e-05 0)
(1.2787 1.08331 0)
(1.69057 0.883002 0)
(1.87447 0.618763 0)
(1.90184 0.355128 0)
(1.85232 0.135485 0)
(1.75834 -0.00902585 0)
(1.66233 -0.0452339 0)
(1.61397 -0.0147499 0)
(1.60596 0.0256902 0)
(1.60888 0.0456737 0)
(1.61194 0.0437468 0)
(1.61246 0.032653 0)
(1.61062 0.0222156 0)
(1.60672 0.0141426 0)
(1.60031 0.010271 0)
(1.59263 0.0114625 0)
(1.5827 0.0154444 0)
(1.56407 0.0205471 0)
(1.52428 0.027099 0)
(1.43723 0.036957 0)
(1.2444 0.0558101 0)
(0.851683 0.0967502 0)
(0.403577 0.157904 0)
(0.100846 0.167584 0)
(-0.0770005 0.12906 0)
(-0.281953 0.0907798 0)
(-0.450511 0.0442071 0)
(-0.598142 0.01186 0)
(-0.703515 -0.00526969 0)
(-0.764845 -0.00252262 0)
(-0.797131 0.00992348 0)
(-0.813809 0.0152597 0)
(-0.820327 0.014203 0)
(-0.811549 0.00789398 0)
(-0.779915 -0.00275438 0)
(-0.723128 -0.0140587 0)
(-0.644235 -0.0239508 0)
(-0.55102 -0.0325602 0)
(-0.450093 -0.0401105 0)
(-0.346591 -0.0466922 0)
(-0.248191 -0.0491143 0)
(-0.154117 -0.0502915 0)
(-0.0691425 -0.0527813 0)
(0.0239849 -0.0505835 0)
(0.101597 -0.043072 0)
(0.17319 -0.0397234 0)
(0.238954 -0.0367948 0)
(0.300059 -0.0343191 0)
(0.355041 -0.0315376 0)
(0.406064 -0.0294286 0)
(0.458218 -0.0286222 0)
(0.51021 -0.0279533 0)
(0.558893 -0.0263388 0)
(0.604539 -0.0244921 0)
(0.647979 -0.022902 0)
(0.689541 -0.0214989 0)
(0.729506 -0.0202554 0)
(0.767947 -0.0190792 0)
(0.805034 -0.0180066 0)
(0.840806 -0.0169958 0)
(0.875396 -0.0160751 0)
(0.908831 -0.0152043 0)
(0.941219 -0.0144017 0)
(0.972593 -0.0136319 0)
(1.00305 -0.0129121 0)
(1.03262 -0.0122126 0)
(1.0614 -0.0115527 0)
(1.08942 -0.0109083 0)
(1.11677 -0.0103029 0)
(1.14346 -0.00971308 0)
(1.16957 -0.00915677 0)
(1.19512 -0.00861778 0)
(1.22015 -0.00810833 0)
(1.2447 -0.0076141 0)
(1.26879 -0.00714478 0)
(1.29244 -0.00668816 0)
(1.31568 -0.00625266 0)
(1.33852 -0.00582928 0)
(1.36095 -0.00542566 0)
(1.38299 -0.00503518 0)
(1.40464 -0.00466457 0)
(1.42588 -0.0043078 0)
(1.44674 -0.00396985 0)
(1.46719 -0.00364363 0)
(1.48725 -0.0033337 0)
(1.50693 -0.00303236 0)
(1.52624 -0.00274084 0)
(1.54519 -0.00245443 0)
(1.56381 -0.00217577 0)
(1.58211 -0.00189512 0)
(1.60009 -0.00162864 0)
(1.61775 -0.00137831 0)
(1.6351 -0.00115289 0)
(1.65205 -0.000958931 0)
(1.66856 -0.000739201 0)
(1.68446 -0.000470645 0)
(1.69942 -0.000140426 0)
(1.71285 0.000281232 0)
(1.7233 0.000876061 0)
(1.73079 0.00156519 0)
(1.37232 0.994221 0)
(1.68609 0.711172 0)
(1.85993 0.39813 0)
(1.94441 0.130182 0)
(1.99465 -0.0613459 0)
(2.02447 -0.162377 0)
(2.03353 -0.16857 0)
(2.03201 -0.128234 0)
(2.01831 -0.0800591 0)
(1.99617 -0.04161 0)
(1.9786 -0.0201745 0)
(1.9729 -0.0134037 0)
(1.97307 -0.0153085 0)
(1.97347 -0.0200629 0)
(1.97311 -0.0229433 0)
(1.97132 -0.0220772 0)
(1.96602 -0.0184642 0)
(1.9524 -0.012067 0)
(1.92234 -0.000885336 0)
(1.85859 0.0193775 0)
(1.72093 0.0585416 0)
(1.41956 0.135862 0)