/*--------------------------------*- C++ -*----------------------------------*\
  =========                 |
  \\      /  F ield         | OpenFOAM: The Open Source CFD Toolbox
   \\    /   O peration     | Website:  https://openfoam.org
    \\  /    A nd           | Version:  13
     \\/     M anipulation  |
\*---------------------------------------------------------------------------*/
FoamFile
{
    format      ascii;
    class       surfaceScalarField;
    location    "5.5";
    object      phi;
}
// * * * * * * * * * * * * * * * * * * * * * * * * * * * * * * * * * * * * * //

dimensions      [1 0 -1 0 0 0 0];

internalField   nonuniform List<scalar> 
10325
(
0.0840003
6.62206e-10
0.0840005
5.29255e-09
0.0839997
1.72032e-08
0.0840017
5.07507e-08
0.0839972
1.33266e-07
0.0840071
3.28812e-07
0.0839842
8.78428e-07
0.0840247
2.04193e-06
0.0839417
5.46981e-06
0.0840526
1.2815e-05
0.0838393
3.53571e-05
0.0839339
9.51735e-05
0.0834785
0.000305577
0.0823837
0.00112783
0.0765229
0.00574492
0.0698924
0.0066447
0.0636023
0.00629451
0.0571053
0.00649098
0.0502948
0.00680346
0.0430845
0.00720119
0.0353884
0.00768809
0.0272077
0.00817297
0.0185912
0.00860804
0.00953564
0.00904841
0.0095286
0.0840003
1.57949e-09
0.0840005
1.01836e-08
0.0839998
3.80991e-08
0.0840015
9.84633e-08
0.0839975
2.7776e-07
0.0840056
7.2387e-07
0.0839874
1.58336e-06
0.0840156
5.03461e-06
0.0839548
8.9121e-06
0.0840292
3.11724e-05
0.0838616
6.34962e-05
0.0839068
0.000204029
0.0834808
0.000607975
0.0823576
0.00227065
0.0766289
0.0113613
0.0698496
0.0134385
0.0636391
0.0125097
0.0572359
0.0128881
0.0504697
0.0135626
0.0431846
0.0144771
0.0353967
0.0154678
0.0271299
0.0164319
0.0183963
0.017333
0.00927569
0.0181618
0.0187972
0.0840003
1.85096e-09
0.0840002
1.89784e-08
0.0840009
4.4101e-08
0.083999
1.84785e-07
0.0840031
3.39229e-07
0.0839936
1.14513e-06
0.0840129
2.30055e-06
0.083969
6.66356e-06
0.0840426
1.5427e-05
0.083897
3.97691e-05
0.0840427
0.000104313
0.0837467
0.000287712
0.0835916
0.000912145
0.0824673
0.00329747
0.0773565
0.0163798
0.0704709
0.0203423
0.064244
0.0187412
0.0578901
0.0192357
0.0511682
0.020277
0.043868
0.0217686
0.0360132
0.0233135
0.027645
0.0247923
0.0187543
0.0262145
0.00944065
0.0274679
0.028231
0.0840003
4.60532e-09
0.0840004
1.47132e-08
0.0839999
8.60991e-08
0.0840012
1.42467e-07
0.0839975
6.26935e-07
0.0840066
9.793e-07
0.0839824
3.91913e-06
0.0840379
6.43029e-06
0.0839126
2.31002e-05
0.0841131
4.57297e-05
0.0837953
0.000138117
0.0840092
0.000359856
0.0835334
0.00114942
0.0828049
0.00411633
0.0788678
0.0201902
0.0719168
0.0273069
0.0655679
0.025095
0.059199
0.0255987
0.0524987
0.0269693
0.0451936
0.0290633
0.0372874
0.0312133
0.0287759
0.0332942
0.0196547
0.035326
0.00995785
0.0371567
0.0381808
0.0840003
2.35361e-09
0.0840002
2.68625e-08
0.0840004
6.16938e-08
0.0839999
2.60416e-07
0.0840013
4.77294e-07
0.0839957
1.69022e-06
0.0840098
3.12636e-06
0.0839715
1.02923e-05
0.084046
2.06027e-05
0.0839066
6.12829e-05
0.0840639
0.000144722
0.0838314
0.00042042
0.083829
0.00127835
0.0832733
0.00456846
0.0814957
0.0218811
0.074496
0.0343223
0.0677997
0.0317982
0.0613004
0.032092
0.0545684
0.0336936
0.0472487
0.0363729
0.0392569
0.0391951
0.0305693
0.0419703
0.021081
0.0448062
0.0108039
0.0474246
0.0489749
0.0840003
3.97524e-09
0.0840005
2.07233e-08
0.0839999
8.47135e-08
0.0840014
2.05289e-07
0.0839974
6.21253e-07
0.0840078
1.42488e-06
0.0839833
3.77665e-06
0.0840418
9.18184e-06
0.0839212
2.26653e-05
0.0841348
5.84661e-05
0.0838283
0.000147795
0.0841631
0.000410552
0.0839242
0.00124194
0.08426
0.00434778
0.0861631
0.0198534
0.0790151
0.0414728
0.0713736
0.0394437
0.0645269
0.0389331
0.0576334
0.0405792
0.0502643
0.0437318
0.0421227
0.047324
0.0331576
0.0509287
0.0232117
0.0547405
0.0121123
0.0585121
0.0610788
0.0840003
3.68849e-09
0.0840002
1.93434e-08
0.0840007
7.67489e-08
0.0839995
1.89021e-07
0.0840025
5.67241e-07
0.083996
1.26028e-06
0.0840106
3.58397e-06
0.0839827
7.75134e-06
0.0840365
2.18178e-05
0.0839553
4.8985e-05
0.0840998
0.000134189
0.0839991
0.000345991
0.084339
0.00103927
0.0851302
0.00347479
0.089874
0.0150661
0.0839967
0.0473176
0.0753569
0.0480724
0.0683012
0.0459783
0.0614659
0.0474046
0.0540986
0.0510861
0.0458689
0.0555425
0.0366489
0.0601382
0.0262063
0.0651661
0.0141206
0.0705844
0.07519
0.0840003
3.36574e-09
0.0840002
1.94467e-08
0.0840008
6.90114e-08
0.0839992
1.91371e-07
0.0840032
5.11397e-07
0.0839941
1.24412e-06
0.0840162
3.28714e-06
0.083969
7.50594e-06
0.0840719
2.0358e-05
0.0838899
4.62269e-05
0.0841717
0.000125385
0.0838759
0.000320798
0.0842312
0.000949764
0.0844185
0.00313036
0.0862321
0.0132489
0.0833623
0.0501225
0.0764695
0.0549395
0.0708922
0.0515431
0.0646937
0.053592
0.0579107
0.0578532
0.0500286
0.0634101
0.0409261
0.0692235
0.0302552
0.0758222
0.0172368
0.0835925
0.0924154
0.0840003
2.40212e-09
0.0840003
2.24236e-08
0.0840003
5.82979e-08
0.0840003
2.17494e-07
0.0840004
4.34057e-07
0.0839992
1.43524e-06
0.0840031
2.69571e-06
0.0839883
8.87517e-06
0.0840242
1.68273e-05
0.0839506
5.26874e-05
0.0840644
0.000114096
0.0839385
0.000330431
0.0840628
0.000916515
0.0840752
0.00304312
0.0850386
0.0122802
0.0819223
0.0531665
0.0791437
0.0577031
0.0732421
0.0574329
0.0671988
0.0596217
0.0613564
0.0636808
0.0544071
0.0703437
0.0461063
0.0775093
0.0361799
0.0857311
0.022398
0.0973578
0.114798
0.0840003
3.95651e-09
0.0840004
1.72903e-08
0.0840003
7.87418e-08
0.0840004
1.68642e-07
0.0839996
5.78365e-07
0.0840021
1.12856e-06
0.0839933
3.64308e-06
0.0840162
7.04367e-06
0.0839602
2.19509e-05
0.0840671
4.52059e-05
0.0838948
0.000130756
0.0840916
0.000319249
0.0838883
0.000939952
0.0840523
0.00301145
0.0845438
0.0116848
0.0829537
0.054691
0.078855
0.0617906
0.0745942
0.0616838
0.0700611
0.0641394
0.064977
0.0687499
0.0594662
0.0758368
0.0530597
0.0838977
0.0441508
0.0946195
0.0310823
0.1104
0.14586
0.0840003
2.81529e-09
0.0840003
2.29062e-08
0.0840004
6.45837e-08
0.084
2.23568e-07
0.0840013
4.84483e-07
0.0839971
1.45248e-06
0.084008
3.10666e-06
0.0839801
8.76666e-06
0.0840454
1.95683e-05
0.0839087
5.26759e-05
0.0841271
0.00012635
0.0838371
0.000339313
0.0840839
0.000943719
0.0838762
0.00301764
0.0843782
0.0112512
0.084774
0.0541972
0.0805546
0.0659987
0.0763516
0.065877
0.0729304
0.0675475
0.0691469
0.0725147
0.0654967
0.0794639
0.0611277
0.0882411
0.0569094
0.0988108
0.0563987
0.110885
0.115013
0.0871985
0.0840003
3.44275e-09
0.0840004
1.97421e-08
0.084
7.26849e-08
0.084001
1.93524e-07
0.0839987
5.41056e-07
0.0840044
1.30126e-06
0.0839918
3.42063e-06
0.0840216
8.15757e-06
0.0839575
2.09618e-05
0.0840828
5.09562e-05
0.0838732
0.000130766
0.0841463
0.000337133
0.0838577
0.000939404
0.084151
0.00293359
0.0846716
0.0106063
0.088717
0.0500841
0.0841507
0.0705586
0.0794866
0.0705326
0.0760238
0.0709893
0.0731416
0.0753817
0.070536
0.0820519
0.0684982
0.0902555
0.0679468
0.0993303
0.0721051
0.106677
0.105246
0.0818
0.0840003
2.77592e-09
0.0840004
2.01194e-08
0.0840002
6.33533e-08
0.0840008
1.95245e-07
0.0839994
4.74243e-07
0.084003
1.29325e-06
0.0839954
3.02386e-06
0.0840129
8.07277e-06
0.0839784
1.87665e-05
0.0840481
4.98877e-05
0.0839433
0.000119486
0.0841237
0.000318535
0.0840116
0.000856657
0.0844742
0.00262199
0.0858238
0.00915959
0.0959478
0.039881
0.0902523
0.0762408
0.0843472
0.0764223
0.0804876
0.0748434
0.0778092
0.078035
0.0759636
0.0838698
0.0755473
0.0906441
0.0775872
0.0972606
0.0825863
0.101633
0.0992934
0.0884392
0.0840003
2.55006e-09
0.0840004
1.58275e-08
0.0840002
5.5743e-08
0.0840007
1.55136e-07
0.0839995
4.12861e-07
0.0840031
1.03603e-06
0.0839952
2.56234e-06
0.0840181
6.41157e-06
0.0839734
1.54722e-05
0.0840902
3.91498e-05
0.0839165
9.49601e-05
0.084289
0.000244732
0.0841485
0.000641112
0.0852056
0.00186322
0.0880613
0.00611754
0.103013
0.0249259
0.0975558
0.0816472
0.0925856
0.0813577
0.0865778
0.0808395
0.0833428
0.0812551
0.0819699
0.0852153
0.0822525
0.090319
0.0846815
0.094777
0.088994
0.0972844
0.0946636
0.0935401
0.0840003
2.26443e-09
0.0840003
1.31854e-08
0.0840003
4.86124e-08
0.0840005
1.28794e-07
0.084
3.57896e-07
0.0840016
8.5796e-07
0.0839976
2.21633e-06
0.0840103
5.32428e-06
0.0839829
1.3329e-05
0.084058
3.27258e-05
0.0839344
8.06177e-05
0.0841975
0.000203888
0.0840316
0.000529377
0.0846562
0.00149708
0.0857542
0.00480511
0.0921111
0.0186318
0.0989137
0.0747342
0.0955617
0.0846793
0.0911248
0.08525
0.0883437
0.0840279
0.0873333
0.0861845
0.0878154
0.0898106
0.0899702
0.0925709
0.0936441
0.0935492
0.0909357
0.0973119
0.0840003
2.02668e-09
0.0840003
1.16839e-08
0.0840004
4.23307e-08
0.0840002
1.13603e-07
0.0840008
3.15871e-07
0.0839999
7.42744e-07
0.0840013
2.02384e-06
0.0840012
4.49949e-06
0.0839983
1.24731e-05
0.0840151
2.72448e-05
0.08399
7.59158e-05
0.0840668
0.000173938
0.0840641
0.000478109
0.0843131
0.00128696
0.0849883
0.00407206
0.0887678
0.0148626
0.0985344
0.0648597
0.0971921
0.085997
0.0949118
0.087499
0.0924871
0.0864459
0.0917301
0.0869053
0.092398
0.0891017
0.0941786
0.0907483
0.0970794
0.0905873
0.0878639
0.10007
0.0840003
1.5541e-09
0.0840003
1.07641e-08
0.0840003
3.45805e-08
0.0840004
1.05239e-07
0.0840003
2.56863e-07
0.0840006
6.96872e-07
0.0840008
1.62545e-06
0.0839996
4.28786e-06
0.0840072
1.006e-05
0.08399
2.6153e-05
0.0840431
6.26825e-05
0.083982
0.000161746
0.0841465
0.000409348
0.0842082
0.00112617
0.0849531
0.00339852
0.087804
0.011936
0.103133
0.0494344
0.101664
0.0874368
0.0991278
0.090009
0.0964429
0.0891159
0.0956227
0.0876916
0.0962289
0.0884684
0.0976808
0.0892369
0.0998243
0.0883904
0.0854881
0.102122
0.0840003
1.26697e-09
0.0840004
8.19274e-09
0.0840003
2.79577e-08
0.0840005
8.00947e-08
0.084
2.07126e-07
0.0840016
5.29449e-07
0.0839988
1.2917e-06
0.0840071
3.25368e-06
0.0839937
7.77757e-06
0.084034
1.97078e-05
0.083981
4.69552e-05
0.0841452
0.000119844
0.0840678
0.000295005
0.0846412
0.00078621
0.0855814
0.00223179
0.0903538
0.00726671
0.111405
0.0282984
0.108851
0.0899215
0.106294
0.0925359
0.102485
0.0929024
0.100191
0.0899479
0.0999679
0.0886808
0.10088
0.0882652
0.10231
0.0868928
0.0838346
0.103896
0.0840003
1.03708e-09
0.0840003
6.41037e-09
0.0840003
2.26324e-08
0.0840004
6.24467e-08
0.0840001
1.6747e-07
0.0840011
4.14603e-07
0.083999
1.0363e-06
0.084006
2.55594e-06
0.0839925
6.21077e-06
0.0840334
1.54843e-05
0.083964
3.72387e-05
0.0841469
9.41054e-05
0.0839509
0.00023029
0.084468
0.000603452
0.0846885
0.00166167
0.0869539
0.0052392
0.0954376
0.019649
0.10963
0.0756356
0.108817
0.0933125
0.106644
0.0950429
0.104145
0.0924074
0.103357
0.0894538
0.103765
0.0878156
0.104644
0.0859402
0.0828083
0.105605
0.0840003
8.57235e-10
0.0840003
5.08538e-09
0.0840003
1.83984e-08
0.0840003
4.96863e-08
0.0840004
1.36069e-07
0.0840005
3.30047e-07
0.0840001
8.53082e-07
0.0840027
2.03874e-06
0.0839967
5.1538e-06
0.0840185
1.24719e-05
0.0839783
3.11401e-05
0.084096
7.67391e-05
0.0839501
0.000192406
0.0843189
0.000493058
0.0843491
0.00134194
0.0857485
0.00406586
0.0908237
0.0144014
0.1097
0.0566586
0.110998
0.09199
0.110081
0.0959336
0.107717
0.0947334
0.106478
0.0906703
0.106364
0.0878942
0.106809
0.0854274
0.0822382
0.107314
0.0840003
6.60269e-10
0.0840003
3.87047e-09
0.0840004
1.40176e-08
0.0840003
3.77992e-08
0.0840005
1.03379e-07
0.0840002
2.48954e-07
0.0840012
6.49172e-07
0.0840004
1.51416e-06
0.0840029
3.94463e-06
0.0840054
9.08545e-06
0.0840078
2.37201e-05
0.0840424
5.5162e-05
0.0840599
0.000143169
0.0842466
0.000348641
0.0846059
0.000933663
0.0860567
0.00264204
0.091743
0.00864249
0.115779
0.0324835
0.116468
0.0912649
0.115503
0.0968834
0.113007
0.097209
0.110293
0.0933608
0.109205
0.0889371
0.109058
0.0855278
0.082091
0.109135
0.0840003
4.66251e-10
0.0840003
3.00041e-09
0.0840003
1.01511e-08
0.0840003
2.92636e-08
0.0840004
7.51151e-08
0.0840002
1.91932e-07
0.0840012
4.7156e-07
0.0839993
1.16493e-06
0.0840064
2.85605e-06
0.0839942
6.97241e-06
0.0840354
1.71638e-05
0.0839737
4.17608e-05
0.0841632
0.000103977
0.0840013
0.000256645
0.0846033
0.000663623
0.085066
0.001817
0.0883139
0.00564646
0.0999616
0.0206458
0.117218
0.0739318
0.11794
0.0961313
0.116284
0.0988361
0.113527
0.0960853
0.112209
0.0902169
0.111442
0.086242
0.0823863
0.111094
0.0840003
3.49608e-10
0.0840003
2.26033e-09
0.0840003
7.63563e-09
0.0840003
2.21046e-08
0.0840004
5.66318e-08
0.0840003
1.45394e-07
0.0840008
3.55057e-07
0.0839998
8.86728e-07
0.0840042
2.15686e-06
0.0839961
5.33184e-06
0.0840251
1.30289e-05
0.083978
3.21373e-05
0.0841272
7.92831e-05
0.0839557
0.000197354
0.0844526
0.000502045
0.0845323
0.00134374
0.0865056
0.00398524
0.0931262
0.0138038
0.116878
0.050083
0.11955
0.0934098
0.120181
0.0981739
0.1185
0.097733
0.115339
0.0933352
0.114033
0.0875014
0.0831281
0.113238
0.0840003
2.46767e-10
0.0840003
1.64326e-09
0.0840003
5.44714e-09
0.0840003
1.60252e-08
0.0840004
4.03422e-08
0.0840003
1.04804e-07
0.0840006
2.52183e-07
0.0840002
6.34018e-07
0.084003
1.52276e-06
0.0839985
3.76345e-06
0.0840181
9.13654e-06
0.0839903
2.23195e-05
0.0841038
5.48356e-05
0.0839861
0.000134223
0.0844482
0.000336572
0.0845356
0.00086652
0.0864609
0.00241735
0.0923805
0.0076274
0.11522
0.0272473
0.124163
0.0843565
0.123843
0.0984507
0.121855
0.0996816
0.118467
0.0966827
0.116871
0.0890534
0.0843911
0.115562
0.0840003
1.73267e-10
0.0840003
1.18344e-09
0.0840003
3.8855e-09
0.0840003
1.15182e-08
0.0840003
2.87693e-08
0.0840004
7.57079e-08
0.0840004
1.78341e-07
0.0840006
4.61751e-07
0.0840014
1.07071e-06
0.0840003
2.75557e-06
0.0840094
6.42092e-06
0.0839969
1.63863e-05
0.0840588
3.86789e-05
0.0839928
9.78969e-05
0.0842751
0.000238597
0.084261
0.000612138
0.0853262
0.00163878
0.0877219
0.00494627
0.0976109
0.0174578
0.121869
0.0598958
0.124964
0.0952976
0.125482
0.0991102
0.123788
0.0983304
0.120074
0.0927351
0.0863738
0.118049
0.0840003
1.29357e-10
0.0840003
7.80959e-10
0.0840003
2.81039e-09
0.0840003
7.64273e-09
0.0840003
2.0643e-08
0.0840004
5.06225e-08
0.0840003
1.26712e-07
0.084001
3.09741e-07
0.0840001
7.50901e-07
0.0840038
1.86302e-06
0.0839997
4.41843e-06
0.0840181
1.1137e-05
0.0840037
2.61326e-05
0.0840827
6.65862e-05
0.0840793
0.000157421
0.084409
0.000405723
0.0848364
0.00103084
0.0870015
0.00292779
0.0949322
0.00939107
0.12217
0.0324849
0.128879
0.0885065
0.129166
0.0987795
0.127014
0.100441
0.12351
0.0962048
0.088855
0.120993
0.0840003
9.10211e-11
0.0840003
5.36034e-10
0.0840003
1.94308e-09
0.0840003
5.22418e-09
0.0840003
1.43328e-08
0.0840003
3.41221e-08
0.0840004
8.92163e-08
0.0840005
2.05899e-07
0.0840005
5.33097e-07
0.0840019
1.22736e-06
0.0840003
3.15496e-06
0.0840122
7.31438e-06
0.0839978
1.86116e-05
0.084074
4.39129e-05
0.0840038
0.000110389
0.0843509
0.000269299
0.0843826
0.000687338
0.0857989
0.00184562
0.0892775
0.00558056
0.102417
0.0194536
0.126905
0.0638192
0.1296
0.0960314
0.131025
0.0989694
0.128304
0.0988915
0.0924672
0.124668
0.0840003
5.574e-11
0.0840003
3.79228e-10
0.0840003
1.23981e-09
0.0840003
3.70079e-09
0.0840003
9.17208e-09
0.0840003
2.41592e-08
0.0840004
5.68922e-08
0.0840003
1.45821e-07
0.084001
3.40205e-07
0.0840001
8.629e-07
0.0840043
2.02795e-06
0.084
5.07429e-06
0.0840205
1.20894e-05
0.0840059
2.98902e-05
0.0840939
7.25708e-05
0.0840957
0.000178554
0.0844651
0.000446868
0.0849608
0.00115706
0.087427
0.0032713
0.0961059
0.0106224
0.124166
0.0355832
0.132354
0.0877668
0.133286
0.098007
0.131655
0.10049
0.0961696
0.127929
0.0840003
4.07358e-11
0.0840003
2.44562e-10
0.0840003
8.68512e-10
0.0840003
2.38218e-09
0.0840003
6.37379e-09
0.0840003
1.55354e-08
0.0840004
3.96686e-08
0.0840004
9.32017e-08
0.0840005
2.37502e-07
0.0840009
5.51293e-07
0.0840009
1.40342e-06
0.0840049
3.26629e-06
0.0840014
8.25015e-06
0.084031
1.94382e-05
0.0840076
4.85649e-05
0.0841708
0.000116818
0.0841369
0.000291454
0.0848254
0.000732687
0.085799
0.00197474
0.0907552
0.0059278
0.105862
0.0202327
0.130376
0.063123
0.133018
0.0953128
0.135266
0.0981998
0.0984124
0.132993
0.0840003
2.51359e-11
0.0840003
1.62261e-10
0.0840003
5.53017e-10
0.0840003
1.58725e-09
0.0840003
4.06555e-09
0.0840003
1.03832e-08
0.0840004
2.50463e-08
0.0840003
6.2557e-08
0.0840006
1.48968e-07
0.0840003
3.69674e-07
0.0840021
8.78772e-07
0.0840002
2.17297e-06
0.0840103
5.18901e-06
0.0840017
1.27488e-05
0.0840529
3.06899e-05
0.0840243
7.5225e-05
0.0842561
0.000183977
0.0843272
0.00045791
0.0853679
0.00118191
0.0877096
0.00331178
0.0973757
0.0106715
0.125797
0.0344412
0.135685
0.0853381
0.13628
0.0975639
0.098809
0.135847
0.0840003
1.56428e-11
0.0840003
1.08518e-10
0.0840003
3.4868e-10
0.0840003
1.05556e-09
0.0840003
2.58293e-09
0.0840003
6.82957e-09
0.0840004
1.60363e-08
0.0840003
4.07559e-08
0.0840005
9.60435e-08
0.0840004
2.38347e-07
0.0840013
5.71493e-07
0.0840008
1.38824e-06
0.0840047
3.39629e-06
0.0840064
8.07195e-06
0.0840176
2.02052e-05
0.084048
4.72812e-05
0.0840929
0.000120332
0.0842983
0.000285721
0.0846839
0.000739806
0.0860977
0.0019385
0.0908533
0.00581767
0.105879
0.0193888
0.132469
0.0585543
0.136712
0.0932575
0.0970819
0.1384
0.0840003
1.08711e-11
0.0840003
6.42999e-11
0.0840003
2.34289e-10
0.0840003
6.27027e-10
0.0840003
1.71454e-09
0.0840003
4.10045e-09
0.0840003
1.04802e-08
0.0840004
2.47693e-08
0.0840003
6.14772e-08
0.0840006
1.46876e-07
0.0840004
3.57024e-07
0.084002
8.66912e-07
0.0840009
2.0681e-06
0.0840094
5.10488e-06
0.0840059
1.1994e-05
0.0840451
3.00117e-05
0.0840523
7.00738e-05
0.0842309
0.000177262
0.0844248
0.000424463
0.0854074
0.00110635
0.088018
0.00301631
0.0979511
0.00950832
0.126507
0.0297369
0.138865
0.0808031
0.0965709
0.139335
0.0840003
6.54835e-12
0.0840003
4.17041e-11
0.0840003
1.41971e-10
0.0840003
4.05802e-10
0.0840003
1.04433e-09
0.0840003
2.61882e-09
0.0840003
6.48225e-09
0.0840003
1.55294e-08
0.0840004
3.86476e-08
0.0840004
9.04554e-08
0.0840006
2.27922e-07
0.0840009
5.26826e-07
0.0840013
1.33391e-06
0.0840048
3.07851e-06
0.0840031
7.79121e-06
0.0840308
1.80822e-05
0.0840148
4.54487e-05
0.0841761
0.000107493
0.0841472
0.000269164
0.0848698
0.000664264
0.0857582
0.00175748
0.0904762
0.00511209
0.103038
0.0168811
0.133006
0.0506779
0.0895231
0.139981
0.0840003
3.98334e-12
0.0840003
2.52883e-11
0.0840003
8.77265e-11
0.0840003
2.47118e-10
0.0840003
6.42164e-10
0.0840003
1.61417e-09
0.0840003
3.90419e-09
0.0840003
9.70315e-09
0.0840004
2.28304e-08
0.0840004
5.7105e-08
0.0840006
1.32767e-07
0.0840004
3.32885e-07
0.0840019
7.72349e-07
0.0840007
1.93404e-06
0.0840097
4.50401e-06
0.0840037
1.11948e-05
0.0840529
2.63876e-05
0.0840298
6.49413e-05
0.0842682
0.000156086
0.0843298
0.000385848
0.0854048
0.000972147
0.0875476
0.00263078
0.0965971
0.00801378
0.122102
0.0250234
0.0712776
0.140193
0.0840003
2.4369e-12
0.0840003
1.5824e-11
0.0840003
5.30521e-11
0.0840003
1.54014e-10
0.0840003
3.8904e-10
0.0840003
9.93888e-10
0.0840003
2.39952e-09
0.0840003
5.87636e-09
0.0840004
1.42621e-08
0.0840003
3.40093e-08
0.0840004
8.38225e-08
0.0840005
1.96191e-07
0.0840008
4.90756e-07
0.0840017
1.13367e-06
0.0840024
2.85777e-06
0.0840104
6.5866e-06
0.0840084
1.65871e-05
0.0840651
3.84891e-05
0.0840516
9.66203e-05
0.0843515
0.000228965
0.0845014
0.000579661
0.0859487
0.00147725
0.0894023
0.00421611
0.101057
0.0135087
0.0405676
0.131471
0.0840003
1.44547e-12
0.0840003
9.47868e-12
0.0840003
3.20509e-11
0.0840003
9.22947e-11
0.0840003
2.35023e-10
0.0840003
5.96603e-10
0.0840003
1.43643e-09
0.0840003
3.55993e-09
0.0840003
8.41358e-09
0.0840004
2.08557e-08
0.0840004
4.88387e-08
0.0840004
1.21179e-07
0.0840008
2.84018e-07
0.0840007
7.01602e-07
0.0840034
1.65503e-06
0.0840016
4.05161e-06
0.0840199
9.67258e-06
0.0840071
2.34414e-05
0.0841125
5.6613e-05
0.0840666
0.000137124
0.0845545
0.000337174
0.0848175
0.000840769
0.0871767
0.00223436
0.0937803
0.00660418
0.0207878
0.113555
0.0840003
9.14667e-13
0.0840003
5.38188e-12
0.0840003
1.97183e-11
0.0840003
5.24216e-11
0.0840003
1.43729e-10
0.0840003
3.41536e-10
0.0840003
8.71743e-10
0.0840003
2.04321e-09
0.0840003
5.06447e-09
0.0840004
1.19951e-08
0.0840003
2.90968e-08
0.0840005
7.00628e-08
0.0840004
1.66653e-07
0.0840009
4.08688e-07
0.0840014
9.53435e-07
0.0840029
2.37644e-06
0.0840086
5.47426e-06
0.0840105
1.37531e-05
0.0840572
3.16414e-05
0.0840569
7.95217e-05
0.0843317
0.000185798
0.0844699
0.000469557
0.0858539
0.0011651
0.0888462
0.00321883
0.00985661
0.0999719
0.0840003
4.97992e-13
0.0840003
3.35295e-12
0.0840003
1.09977e-11
0.0840003
3.26012e-11
0.0840003
8.07113e-11
0.0840003
2.09291e-10
0.0840003
4.94956e-10
0.0840003
1.23045e-09
0.0840003
2.92441e-09
0.0840003
7.07483e-09
0.0840004
1.70992e-08
0.0840004
4.04814e-08
0.0840005
9.96502e-08
0.0840006
2.31597e-07
0.0840009
5.78458e-07
0.0840024
1.32938e-06
0.0840024
3.34248e-06
0.0840144
7.67945e-06
0.0840104
1.92256e-05
0.084086
4.46763e-05
0.0840661
0.000111101
0.0844594
0.00026413
0.0846354
0.00066391
0.0865627
0.00169904
0.00487328
0.0910795
0.0840003
3.09093e-13
0.0840003
1.85075e-12
0.0840003
6.67985e-12
0.0840003
1.80218e-11
0.0840003
4.86987e-11
0.0840003
1.1666e-10
0.0840003
2.94831e-10
0.0840003
6.95772e-10
0.0840003
1.70607e-09
0.0840003
4.06752e-09
0.0840003
9.76155e-09
0.0840004
2.36613e-08
0.0840004
5.57338e-08
0.0840005
1.37169e-07
0.0840008
3.18462e-07
0.0840009
7.92985e-07
0.0840038
1.82668e-06
0.0840029
4.56039e-06
0.0840223
1.05303e-05
0.0840135
2.62078e-05
0.0841291
6.1028e-05
0.0840999
0.000151636
0.084663
0.000361732
0.0850307
0.000916904
0.00240212
0.0879388
0.0840003
1.6742e-13
0.0840003
1.08716e-12
0.0840003
3.68475e-12
0.0840003
1.05603e-11
0.0840003
2.69265e-11
0.0840003
6.77866e-11
0.0840003
1.63839e-10
0.0840003
3.98827e-10
0.0840003
9.5382e-10
0.0840003
2.29745e-09
0.0840003
5.49945e-09
0.0840003
1.31517e-08
0.0840004
3.15615e-08
0.0840004
7.52053e-08
0.0840006
1.81157e-07
0.0840009
4.29176e-07
0.0840016
1.03773e-06
0.0840043
2.45244e-06
0.0840058
5.93751e-06
0.0840268
1.40115e-05
0.0840284
3.40227e-05
0.0841615
8.04753e-05
0.0841863
0.000196641
0.0848685
0.000475575
0.00120671
0.0856971
0.0840003
9.27377e-14
0.0840003
6.09863e-13
0.0840003
2.03656e-12
0.0840003
5.93157e-12
0.0840003
1.48612e-11
0.0840003
3.80748e-11
0.0840003
9.01848e-11
0.0840003
2.2271e-10
0.0840003
5.26199e-10
0.0840003
1.27214e-09
0.0840003
3.03489e-09
0.0840003
7.21611e-09
0.0840004
1.74474e-08
0.0840004
4.09306e-08
0.0840005
9.9822e-08
0.0840006
2.3228e-07
0.0840011
5.704e-07
0.0840025
1.31989e-06
0.0840034
3.24516e-06
0.0840153
7.5354e-06
0.0840148
1.841e-05
0.0840923
4.33008e-05
0.0840875
0.000104832
0.0845045
0.000252607
0.000620649
0.0847403
0.0840003
4.93971e-14
0.0840003
3.17755e-13
0.0840003
1.11125e-12
0.0840003
3.08842e-12
0.0840003
8.08898e-12
0.0840003
1.98384e-11
0.0840003
4.83495e-11
0.0840003
1.17127e-10
0.0840003
2.75207e-10
0.0840003
6.75402e-10
0.0840003
1.54791e-09
0.0840003
3.85497e-09
0.0840003
8.70668e-09
0.0840003
2.17959e-08
0.0840005
4.91723e-08
0.0840004
1.22341e-07
0.0840011
2.78498e-07
0.0840009
6.82596e-07
0.0840044
1.5811e-06
0.0840043
3.79091e-06
0.08402
8.9714e-06
0.0840316
2.10173e-05
0.084093
5.09865e-05
0.0842155
0.00011782
0.000292582
0.0845432
0.0840003
2.517e-14
0.0840003
1.64645e-13
0.0840003
5.61536e-13
0.0840003
1.5823e-12
0.0840003
4.06004e-12
0.0840003
1.00473e-11
0.0840003
2.42893e-11
0.0840003
5.78575e-11
0.0840003
1.38276e-10
0.0840003
3.24047e-10
0.0840003
7.75905e-10
0.0840003
1.80012e-09
0.0840003
4.30231e-09
0.0840004
9.96686e-09
0.0840004
2.37242e-08
0.0840005
5.49443e-08
0.0840004
1.29404e-07
0.0840013
3.01659e-07
0.0840008
7.02766e-07
0.0840062
1.64032e-06
0.0840038
3.7753e-06
0.0840326
8.8859e-06
0.0840249
2.0134e-05
0.0841651
4.77244e-05
0.000108499
0.0842089
0.0840003
1.21216e-14
0.0840003
8.18128e-14
0.0840003
2.61659e-13
0.0840003
7.91612e-13
0.0840003
1.89465e-12
0.0840003
4.90385e-12
0.0840003
1.13883e-11
0.0840003
2.7407e-11
0.0840003
6.52815e-11
0.0840003
1.47824e-10
0.0840003
3.664e-10
0.0840003
7.87123e-10
0.0840003
2.03886e-09
0.0840003
4.164e-09
0.0840003
1.11444e-08
0.0840004
2.21218e-08
0.0840003
5.98111e-08
0.0840009
1.17837e-07
0.0840002
3.14038e-07
0.084004
6.30535e-07
0.0839988
1.61292e-06
0.0840213
3.38148e-06
0.0839932
8.10093e-06
0.0841043
1.80852e-05
4.04679e-05
0.0840042
0.0840003
7.04753e-15
0.0840003
3.29088e-14
0.0840003
1.34125e-13
0.0840003
3.26386e-13
0.0840003
9.41305e-13
0.0840003
2.06885e-12
0.0840003
5.43082e-12
0.0840003
1.1727e-11
0.0840003
2.9485e-11
0.0840003
6.52469e-11
0.0840003
1.56103e-10
0.0840003
3.57884e-10
0.0840003
8.14438e-10
0.0840003
1.9483e-09
0.0840004
4.23532e-09
0.0840003
1.04056e-08
0.0840005
2.18433e-08
0.0840001
5.53177e-08
0.0840014
1.11521e-07
0.0839991
2.88596e-07
0.0840059
5.6942e-07
0.0839942
1.46973e-06
0.0840277
2.87026e-06
0.0839728
7.42385e-06
1.49112e-05
0.0841073
0.0840003
1.86916e-15
0.0840003
1.89104e-14
0.0840003
4.28147e-14
0.0840003
1.82209e-13
0.0840003
3.13263e-13
0.0840003
1.09754e-12
0.0840003
1.78051e-12
0.0840003
6.10083e-12
0.0840003
9.64003e-12
0.0840003
3.229e-11
0.0840003
5.2832e-11
0.0840003
1.6575e-10
0.0840003
3.00488e-10
0.0840003
8.17989e-10
0.0840004
1.71949e-09
0.0840003
3.96834e-09
0.0840005
1.00552e-08
0.0840001
1.82256e-08
0.084001
5.78368e-08
0.0839993
8.63957e-08
0.0840029
3.28319e-07
0.0839969
3.99856e-07
0.0840064
1.84396e-06
0.0839909
1.53507e-06
9.01108e-06
0.0840203
0.0840003
1.97108e-15
0.0840003
4.92878e-15
0.0840003
3.30044e-14
0.0840003
4.29802e-14
0.0840003
2.31626e-13
0.0840003
2.45842e-13
0.0840003
1.33868e-12
0.0840003
1.23766e-12
0.0840003
7.32326e-12
0.0840003
6.60937e-12
0.0840003
3.86526e-11
0.0840003
4.01578e-11
0.0840003
1.89322e-10
0.0840003
2.69125e-10
0.0840003
8.61609e-10
0.0840003
1.72033e-09
0.0840004
3.88922e-09
0.0840002
1.10893e-08
0.0840007
1.62089e-08
0.0839988
6.98143e-08
0.084004
7.15022e-08
0.0839898
4.25916e-07
0.0840248
2.26505e-07
0.0839427
2.5545e-06
1.01689e-06
0.0841039
0.0840003
-2.32236e-16
0.0840003
4.05296e-15
0.0840003
5.48411e-15
0.0840003
3.97521e-14
0.0840003
3.24144e-14
0.0840003
2.26453e-13
0.0840003
2.29854e-13
0.0840003
1.15322e-12
0.0840003
1.47992e-12
0.0840003
6.18392e-12
0.0840003
8.88219e-12
0.0840003
2.97073e-11
0.0840003
5.56853e-11
0.0840003
1.54334e-10
0.0840003
3.16023e-10
0.0840003
7.9607e-10
0.0840004
1.82509e-09
0.084
4.4342e-09
0.0840009
1.13017e-08
0.0839989
2.13962e-08
0.0840032
6.51738e-08
0.0839937
7.83294e-08
0.0840092
4.05722e-07
0.0839755
4.23399e-07
1.96914e-06
0.0840236
0.0840003
1.28153e-16
0.0840003
8.45678e-16
0.0840003
2.42081e-15
0.0840003
5.06019e-15
0.0840003
2.75769e-14
0.0840003
6.2372e-14
0.0840003
3.52632e-14
0.0840003
8.27403e-13
0.0840003
-8.26705e-13
0.0840003
7.12356e-12
0.0840003
-9.41603e-12
0.0840003
5.12135e-11
0.0840003
-6.87213e-11
0.0840003
3.13455e-10
0.0840003
-3.79619e-10
0.0840003
1.75819e-09
0.0840004
-2.0328e-09
0.084
8.50954e-09
0.084001
-9.4688e-09
0.0839987
3.57132e-08
0.0840037
-1.18102e-08
0.0839924
9.37015e-08
0.0840131
1.80414e-07
0.0839668
-3.78023e-08
2.02413e-06
0.0840384
0.0840003
0.0840003
0.0840003
0.0840003
0.0840003
0.0840003
0.0840003
0.0840003
0.0840003
0.0840003
0.0840003
0.0840003
0.0840003
0.0840003
0.0840003
0.0840004
0.0840002
0.0840006
0.0839996
0.084002
0.0839961
0.0840094
0.083978
0.0840383
0.0839163
0.0453231
0.0417769
0.0255846
0.0195186
0.0136201
0.0116542
-0.00256461
0.0157107
-0.0121988
0.00956202
-0.0177422
0.00546162
-0.0217067
0.00387344
-0.024098
0.00225299
-0.0247966
0.000580588
-0.0249557
5.42543e-05
-0.0254287
0.000396412
-0.0261938
0.00071344
-0.0270106
0.000776628
-0.0276733
0.000633064
-0.0282112
0.000512687
-0.0287409
0.000521103
-0.0292771
0.000538346
-0.0298208
0.000553163
-0.0303442
0.000547275
-0.0308197
0.000504663
-0.0312065
0.000420494
-0.0314996
0.000339997
-0.0318513
0.000400522
-0.0322005
0.000400568
-0.0324831
0.000334987
-0.0326787
0.000246797
-0.0327518
0.000116566
-0.0325926
-0.000128772
-0.0320447
-0.000528471
-0.031048
-0.00098983
-0.0296369
-0.00141163
-0.0278564
-0.00178853
-0.0257696
-0.00209818
-0.0234178
-0.00236893
-0.0209028
-0.00253605
-0.0183056
-0.00262158
-0.015669
-0.00266411
-0.0130227
-0.00267458
-0.0103049
-0.00274699
-0.00759998
-0.0027359
-0.00492975
-0.00270099
-0.00224384
-0.00271615
0.000515422
-0.00278887
0.00309696
-0.00261117
0.00551055
-0.00244372
0.00783092
-0.00235093
0.0100583
-0.00225871
0.0121893
-0.00216317
0.0142157
-0.00205998
0.0161506
-0.00196924
0.0180366
-0.00192179
0.0198759
-0.00187749
0.0216348
-0.00179968
0.023296
-0.0017059
0.0248756
-0.00162744
0.026366
-0.00154778
0.0277875
-0.00147934
0.0291257
-0.00141026
0.0303955
-0.00134698
0.0315912
-0.00128684
0.0327188
-0.00123043
0.033782
-0.00117867
0.03478
-0.0011307
0.0357184
-0.0010872
0.0365995
-0.00104829
0.0374254
-0.00101379
0.0382009
-0.000983818
0.0389292
-0.000958188
0.039613
-0.0009362
0.0402561
-0.000916888
0.040862
-0.000899315
0.0414418
-0.000885521
0.0420067
-0.00087223
0.0425578
-0.000860643
0.0430917
-0.000849831
0.0436102
-0.000835305
0.04412
-0.000815623
0.0446478
-0.000787971
0.0451439
-0.000759478
0.0456144
-0.000729058
0.0460803
-0.000694907
0.0465589
-0.000654376
0.0470162
-0.000610088
0.047469
-0.000563033
0.0479064
-0.000518856
0.048322
-0.000477583
0.0487264
-0.000439424
0.0491066
-0.000402188
0.0494596
-0.00036581
0.0497874
-0.000329256
0.050094
-0.00029282
0.0503709
-0.00025581
0.0506157
-0.00021814
0.0508281
-0.000178855
0.0510061
-0.000137194
0.0511417
-9.19735e-05
0.0512301
-4.18299e-05
0.0512656
1.2457e-05
0.0512417
7.2848e-05
0.000138625
0.0612523
0.0622077
0.0458127
0.0346888
0.0345998
0.0226738
0.0287545
0.0212602
0.0213056
0.0168181
0.0143086
0.0124169
0.0084546
0.00968379
0.00287816
0.00771388
-0.00292805
0.00628324
-0.00805445
0.00508499
-0.0119416
0.00421881
-0.0146466
0.00335019
-0.0164384
0.00250967
-0.0175187
0.00168429
-0.0181841
0.00115085
-0.0188496
0.00116538
-0.0195417
0.00124227
-0.0202608
0.00128958
-0.0209637
0.00126797
-0.021606
0.00118339
-0.0221784
0.0010292
-0.0226681
0.000865385
-0.0230316
0.000814056
-0.0233779
0.000796794
-0.0236304
0.000638479
-0.0236777
0.000344163
-0.0234998
-1.8244e-05
-0.0229638
-0.000635342
-0.0219471
-0.00152651
-0.0204178
-0.00251395
-0.0184985
-0.00333435
-0.0162469
-0.00405219
-0.0137552
-0.00460983
-0.0110595
-0.0050867
-0.00828908
-0.00533085
-0.00550213
-0.00543068
-0.00271792
-0.00547124
0.000197729
-0.00561502
0.00289647
-0.00547047
0.00547737
-0.00534077
0.00801931
-0.00526476
0.0104491
-0.00516729
0.0127315
-0.00509191
0.0150154
-0.00491499
0.0172862