/*--------------------------------*- C++ -*----------------------------------*\
  =========                 |
  \\      /  F ield         | OpenFOAM: The Open Source CFD Toolbox
   \\    /   O peration     | Website:  https://openfoam.org
    \\  /    A nd           | Version:  13
     \\/     M anipulation  |
\*---------------------------------------------------------------------------*/
FoamFile
{
    format      ascii;
    class       volVectorField;
    location    "5.5";
    object      U;
}
// * * * * * * * * * * * * * * * * * * * * * * * * * * * * * * * * * * * * * //

dimensions      [0 1 -1 0 0 0 0];

internalField   nonuniform List<vector> 
5250
(
(3 1.16891e-08 0)
(2.99999 7.24034e-08 0)
(2.99996 2.63379e-07 0)
(2.99991 7.11682e-07 0)
(2.99978 2.02675e-06 0)
(2.99946 4.75038e-06 0)
(2.99865 1.33671e-05 0)
(2.99669 2.97337e-05 0)
(2.99176 8.14562e-05 0)
(2.97948 0.000184654 0)
(2.94755 0.000491587 0)
(2.85997 0.00123508 0)
(2.60645 0.00342236 0)
(1.86226 0.00976861 0)
(0.863655 0.0264607 0)
(0.44396 0.0243516 0)
(0.534396 0.0244102 0)
(0.558695 0.0262341 0)
(0.503965 0.0280726 0)
(0.413347 0.0299326 0)
(0.328824 0.032136 0)
(0.26047 0.0347003 0)
(0.191961 0.0373604 0)
(0.11445 0.0403949 0)
(0.049354 0.0444814 0)
(3 2.77439e-08 0)
(2.99999 2.34981e-07 0)
(2.99997 7.72494e-07 0)
(2.99991 2.23447e-06 0)
(2.99978 5.80924e-06 0)
(2.99947 1.56813e-05 0)
(2.99867 3.47243e-05 0)
(2.99674 0.000105229 0)
(2.99189 0.000204285 0)
(2.97983 0.000638152 0)
(2.94843 0.00139274 0)
(2.86241 0.00391476 0)
(2.61349 0.0104686 0)
(1.88082 0.0303709 0)
(0.874237 0.0806251 0)
(0.440544 0.0702932 0)
(0.53437 0.0672337 0)
(0.55987 0.0701751 0)
(0.504841 0.0731748 0)
(0.414244 0.0763088 0)
(0.329699 0.079816 0)
(0.26075 0.0836206 0)
(0.191212 0.087084 0)
(0.112383 0.0903304 0)
(0.0466713 0.0931406 0)
(3 4.67096e-08 0)
(2.99999 4.33429e-07 0)
(2.99997 1.17737e-06 0)
(2.99992 4.21723e-06 0)
(2.99979 8.90813e-06 0)
(2.99948 2.78717e-05 0)
(2.99873 5.60993e-05 0)
(2.99683 0.000173796 0)
(2.9922 0.000352405 0)
(2.98048 0.00103834 0)
(2.95025 0.00237079 0)
(2.86764 0.00653039 0)
(2.62832 0.0177287 0)
(1.92255 0.0514161 0)
(0.899482 0.138423 0)
(0.437647 0.119406 0)
(0.538091 0.112956 0)
(0.56637 0.118047 0)
(0.511205 0.123733 0)
(0.420911 0.13028 0)
(0.336361 0.136959 0)
(0.266608 0.143913 0)
(0.195682 0.150495 0)
(0.114945 0.156313 0)
(0.0468845 0.159856 0)
(3 9.76962e-08 0)
(2.99999 4.92644e-07 0)
(2.99997 1.95498e-06 0)
(2.99992 4.83551e-06 0)
(2.9998 1.44614e-05 0)
(2.9995 3.1742e-05 0)
(2.99879 9.28803e-05 0)
(2.99699 0.000195045 0)
(2.99261 0.00057224 0)
(2.98151 0.00125381 0)
(2.953 0.00345435 0)
(2.87524 0.00866509 0)
(2.65111 0.0243473 0)
(1.98586 0.0700871 0)
(0.940201 0.192697 0)
(0.437285 0.167981 0)
(0.54664 0.158174 0)
(0.579221 0.165249 0)
(0.524163 0.173777 0)
(0.434268 0.184334 0)
(0.349295 0.194647 0)
(0.278406 0.205296 0)
(0.20556 0.215761 0)
(0.121694 0.224956 0)
(0.0493351 0.229723 0)
(3 1.03337e-07 0)
(2.99999 6.24279e-07 0)
(2.99997 2.222e-06 0)
(2.99993 6.05432e-06 0)
(2.99981 1.65972e-05 0)
(2.99955 4.01745e-05 0)
(2.99886 0.000105704 0)
(2.99723 0.000251394 0)
(2.99308 0.000651907 0)
(2.98288 0.00158267 0)
(2.95644 0.00406626 0)
(2.88504 0.0105501 0)
(2.68005 0.0292072 0)
(2.06958 0.084615 0)
(0.997691 0.239241 0)
(0.445101 0.21783 0)
(0.561889 0.205593 0)
(0.599361 0.213297 0)
(0.544635 0.223782 0)
(0.455136 0.238212 0)
(0.369099 0.252454 0)
(0.29651 0.267321 0)
(0.221049 0.282454 0)
(0.13258 0.2961 0)
(0.0538822 0.303091 0)
(3 9.4583e-08 0)
(2.99999 7.14172e-07 0)
(2.99997 2.20828e-06 0)
(2.99993 7.00529e-06 0)
(2.99983 1.66571e-05 0)
(2.99958 4.69087e-05 0)
(2.99897 0.000104823 0)
(2.99745 0.000292972 0)
(2.99372 0.000651878 0)
(2.98435 0.0017802 0)
(2.96048 0.00423482 0)
(2.89625 0.0113904 0)
(2.71344 0.0309356 0)
(2.16992 0.0900565 0)
(1.07878 0.262531 0)
(0.475743 0.263498 0)
(0.589136 0.25582 0)
(0.62926 0.263717 0)
(0.574903 0.275357 0)
(0.485819 0.293378 0)
(0.397916 0.312139 0)
(0.322761 0.332176 0)
(0.243774 0.353336 0)
(0.149105 0.373505 0)
(0.0613729 0.385081 0)
(3 1.1312e-07 0)
(2.99999 5.98802e-07 0)
(2.99998 2.40949e-06 0)
(2.99994 5.89021e-06 0)
(2.99985 1.77684e-05 0)
(2.99962 4.01419e-05 0)
(2.99907 0.000109994 0)
(2.99768 0.000252293 0)
(2.99432 0.000661695 0)
(2.98587 0.00157567 0)
(2.96446 0.00405699 0)
(2.90739 0.0103091 0)
(2.74613 0.0281145 0)
(2.27105 0.0802715 0)
(1.17943 0.237861 0)
(0.526545 0.29624 0)
(0.623397 0.307727 0)
(0.662898 0.315521 0)
(0.610886 0.328094 0)
(0.524484 0.350116 0)
(0.435715 0.374493 0)
(0.358202 0.401006 0)
(0.275639 0.430158 0)
(0.173749 0.460176 0)
(0.073675 0.481297 0)
(3 1.05023e-07 0)
(2.99999 5.73343e-07 0)
(2.99998 2.15536e-06 0)
(2.99994 5.62431e-06 0)
(2.99986 1.58956e-05 0)
(2.99966 3.70248e-05 0)
(2.99915 0.000101125 0)
(2.99791 0.000224969 0)
(2.99482 0.000617527 0)
(2.98719 0.00138496 0)
(2.96775 0.00368958 0)
(2.91636 0.00904603 0)
(2.77161 0.0245243 0)
(2.34486 0.068404 0)
(1.28102 0.202084 0)
(0.570262 0.335842 0)
(0.638607 0.369099 0)
(0.678541 0.367725 0)
(0.638854 0.380185 0)
(0.562695 0.406513 0)
(0.477981 0.438403 0)
(0.40142 0.473524 0)
(0.317985 0.513648 0)
(0.210455 0.558805 0)
(0.094526 0.600576 0)
(3 8.37001e-08 0)
(2.99999 6.20326e-07 0)
(2.99998 1.86949e-06 0)
(2.99995 6.05533e-06 0)
(2.99987 1.39049e-05 0)
(2.99969 3.96109e-05 0)
(2.99922 8.80655e-05 0)
(2.99811 0.000241651 0)
(2.99529 0.000545654 0)
(2.98843 0.00144435 0)
(2.97084 0.00342293 0)
(2.92469 0.0089424 0)
(2.79537 0.0234321 0)
(2.415 0.0657901 0)
(1.41016 0.193781 0)
(0.649295 0.385885 0)
(0.646577 0.418816 0)
(0.676752 0.414769 0)
(0.659149 0.430664 0)
(0.599082 0.459997 0)
(0.523542 0.500971 0)
(0.452321 0.547345 0)
(0.373351 0.601525 0)
(0.267528 0.671675 0)
(0.132398 0.757725 0)
(3 9.19378e-08 0)
(2.99999 5.8919e-07 0)
(2.99998 2.02066e-06 0)
(2.99995 5.71266e-06 0)
(2.99989 1.49406e-05 0)
(2.99972 3.79115e-05 0)
(2.99931 9.36149e-05 0)
(2.99829 0.000234972 0)
(2.99582 0.000571501 0)
(2.98958 0.00143116 0)
(2.97401 0.00353047 0)
(2.933 0.00898999 0)
(2.81894 0.0237185 0)
(2.48548 0.066253 0)
(1.56336 0.193876 0)
(0.748968 0.434023 0)
(0.653544 0.451036 0)
(0.681464 0.453191 0)
(0.6788 0.475803 0)
(0.634805 0.509115 0)
(0.573813 0.558707 0)
(0.512334 0.61696 0)
(0.447795 0.691945 0)
(0.362 0.806328 0)
(0.203954 1.01326 0)
(3 1.00976e-07 0)
(2.99999 5.97429e-07 0)
(2.99998 2.13754e-06 0)
(2.99996 5.83756e-06 0)
(2.9999 1.58312e-05 0)
(2.99976 3.84999e-05 0)
(2.99939 0.000100404 0)
(2.99851 0.000235442 0)
(2.99629 0.000614955 0)
(2.99089 0.00144312 0)
(2.97714 0.00372895 0)
(2.94152 0.00921811 0)
(2.84303 0.0244899 0)
(2.5567 0.0678727 0)
(1.73742 0.197387 0)
(0.867288 0.482339 0)
(0.662252 0.485065 0)
(0.693267 0.487641 0)
(0.703535 0.512451 0)
(0.673617 0.551729 0)
(0.628866 0.607069 0)
(0.585842 0.67647 0)
(0.555282 0.771426 0)
(0.553077 0.916464 0)
(0.591792 1.16162 0)
(3 9.36792e-08 0)
(2.99999 6.36759e-07 0)
(2.99999 2.05297e-06 0)
(2.99997 6.24107e-06 0)
(2.99991 1.53599e-05 0)
(2.99979 4.12191e-05 0)
(2.99948 9.76894e-05 0)
(2.99872 0.000252993 0)
(2.99683 0.000603959 0)
(2.99218 0.00153683 0)
(2.98049 0.00375549 0)
(2.95028 0.00959102 0)
(2.8679 0.0249698 0)
(2.62982 0.0692856 0)
(1.93327 0.200561 0)
(1.00806 0.525818 0)
(0.681019 0.52263 0)
(0.71361 0.523094 0)
(0.735275 0.543437 0)
(0.717979 0.586626 0)
(0.689211 0.645337 0)
(0.668617 0.722347 0)
(0.673511 0.825941 0)
(0.732314 0.968231 0)
(0.876676 1.15381 0)
(3 9.27472e-08 0)
(3 5.96535e-07 0)
(2.99999 2.0415e-06 0)
(2.99997 5.83311e-06 0)
(2.99993 1.52606e-05 0)
(2.99982 3.89522e-05 0)
(2.99956 9.69626e-05 0)
(2.99893 0.000243746 0)
(2.99736 0.000597307 0)
(2.99352 0.00150693 0)
(2.98386 0.00371046 0)
(2.9592 0.00945945 0)
(2.8929 0.024538 0)
(2.70378 0.0677256 0)
(2.14508 0.196115 0)
(1.17903 0.547866 0)
(0.729412 0.565277 0)
(0.750588 0.568517 0)
(0.777418 0.576672 0)
(0.77123 0.616852 0)
(0.75502 0.675999 0)
(0.754056 0.753143 0)
(0.784028 0.851672 0)
(0.86795 0.970748 0)
(1.0313 1.08717 0)
(3 7.9497e-08 0)
(3 5.36691e-07 0)
(2.99999 1.7796e-06 0)
(2.99998 5.23837e-06 0)
(2.99994 1.3263e-05 0)
(2.99986 3.48121e-05 0)
(2.99965 8.34804e-05 0)
(2.99913 0.00021626 0)
(2.99788 0.000510579 0)
(2.99477 0.00132256 0)
(2.98711 0.00315666 0)
(2.96767 0.0081191 0)
(2.91655 0.0205799 0)
(2.77404 0.0559537 0)
(2.35949 0.159681 0)
(1.39897 0.471853 0)
(0.830004 0.588599 0)
(0.810775 0.612007 0)
(0.829045 0.617955 0)
(0.833845 0.648461 0)
(0.826012 0.701832 0)
(0.836047 0.771762 0)
(0.878851 0.856028 0)
(0.967996 0.948599 0)
(1.12192 1.02393 0)
(3 7.14328e-08 0)
(3 4.29994e-07 0)
(2.99999 1.54492e-06 0)
(2.99998 4.19296e-06 0)
(2.99995 1.1396e-05 0)
(2.99988 2.79433e-05 0)
(2.99972 7.05412e-05 0)
(2.99929 0.000172751 0)
(2.99828 0.000423404 0)
(2.99572 0.00105137 0)
(2.98952 0.0025473 0)
(2.97373 0.00638823 0)
(2.93271 0.0159838 0)
(2.81914 0.0421983 0)
(2.49039 0.116866 0)
(1.61301 0.348367 0)
(0.92578 0.622303 0)
(0.851817 0.65468 0)
(0.868773 0.665655 0)
(0.88708 0.682688 0)
(0.892046 0.725128 0)
(0.910048 0.783751 0)
(0.958036 0.851915 0)
(1.04447 0.922198 0)
(1.18192 0.975142 0)
(3 6.37854e-08 0)
(3 3.69077e-07 0)
(2.99999 1.3492e-06 0)
(2.99998 3.59204e-06 0)
(2.99996 9.98201e-06 0)
(2.99991 2.37077e-05 0)
(2.99977 6.27928e-05 0)
(2.99943 0.000145372 0)
(2.99862 0.000381543 0)
(2.99654 0.000884197 0)
(2.99156 0.00229459 0)
(2.97886 0.00545758 0)
(2.94625 0.0140813 0)
(2.85698 0.0362502 0)
(2.59985 0.100349 0)
(1.86697 0.292458 0)
(1.07352 0.665451 0)
(0.880969 0.690544 0)
(0.895033 0.702396 0)
(0.924783 0.710598 0)
(0.947374 0.743534 0)
(0.973742 0.79174 0)
(1.02376 0.846161 0)
(1.10516 0.899544 0)
(1.22579 0.938662 0)
(3 5.34466e-08 0)
(3 3.34732e-07 0)
(3 1.14695e-06 0)
(2.99999 3.27101e-06 0)
(2.99997 8.54605e-06 0)
(2.99993 2.15439e-05 0)
(2.99982 5.4506e-05 0)
(2.99956 0.000131592 0)
(2.9989 0.000336631 0)
(2.99732 0.000798219 0)
(2.99333 0.00206044 0)
(2.98355 0.00494461 0)
(2.95833 0.0127389 0)
(2.89072 0.0327299 0)
(2.69853 0.0901466 0)
(2.13215 0.260851 0)
(1.26572 0.684371 0)
(0.928728 0.723134 0)
(0.928273 0.730918 0)
(0.96056 0.734129 0)
(0.99657 0.756458 0)
(1.02964 0.795854 0)
(1.07953 0.840142 0)
(1.15494 0.881508 0)
(1.2605 0.91111 0)
(3 4.20199e-08 0)
(3 2.82356e-07 0)
(3 9.32405e-07 0)
(2.99999 2.76057e-06 0)
(2.99998 6.92309e-06 0)
(2.99994 1.82682e-05 0)
(2.99986 4.35114e-05 0)
(2.99966 0.000112377 0)
(2.99917 0.000265774 0)
(2.99798 0.000682535 0)
(2.99501 0.00162599 0)
(2.98776 0.00414165 0)
(2.96942 0.0101537 0)
(2.92147 0.0263285 0)
(2.78948 0.0705165 0)
(2.406 0.202029 0)
(1.53467 0.58338 0)
(1.03793 0.73011 0)
(0.987836 0.753514 0)
(1.00606 0.761648 0)
(1.04558 0.772113 0)
(1.08319 0.800816 0)
(1.13044 0.835832 0)
(1.1984 0.868011 0)
(1.29044 0.890494 0)
(3 3.42191e-08 0)
(3 2.16399e-07 0)
(3 7.48438e-07 0)
(2.99999 2.10422e-06 0)
(2.99998 5.52969e-06 0)
(2.99996 1.3912e-05 0)
(2.9999 3.43088e-05 0)
(2.99974 8.54531e-05 0)
(2.99937 0.000205588 0)
(2.99845 0.000515669 0)
(2.99621 0.00122907 0)
(2.99066 0.00309655 0)
(2.97681 0.00747236 0)
(2.94092 0.0190298 0)
(2.84315 0.0492405 0)
(2.56269 0.136086 0)
(1.80351 0.404635 0)
(1.15487 0.735135 0)
(1.03634 0.774744 0)
(1.04478 0.791637 0)
(1.08457 0.794295 0)
(1.12906 0.810407 0)
(1.17568 0.835554 0)
(1.23706 0.85968 0)
(1.3176 0.876211 0)
(3 2.81691e-08 0)
(3 1.70785e-07 0)
(3 6.09076e-07 0)
(2.99999 1.66288e-06 0)
(2.99999 4.50409e-06 0)
(2.99997 1.10428e-05 0)
(2.99992 2.80403e-05 0)
(2.99981 6.81348e-05 0)
(2.99953 0.000168655 0)
(2.99883 0.000414317 0)
(2.99716 0.00101237 0)
(2.99296 0.0025171 0)
(2.98267 0.00615706 0)
(2.95612 0.0155519 0)
(2.88499 0.0400456 0)
(2.6831 0.109465 0)
(2.09609 0.319053 0)
(1.33359 0.755247 0)
(1.08423 0.80671 0)
(1.07887 0.819677 0)
(1.1141 0.818425 0)
(1.1653 0.821393 0)
(1.21448 0.837399 0)
(1.27135 0.854985 0)
(1.34254 0.866825 0)
(3 2.2564e-08 0)
(3 1.33046e-07 0)
(3 4.81181e-07 0)
(3 1.29838e-06 0)
(2.99999 3.55206e-06 0)
(2.99998 8.59267e-06 0)
(2.99994 2.22925e-05 0)
(2.99986 5.27429e-05 0)
(2.99966 0.00013507 0)
(2.99916 0.000319924 0)
(2.99796 0.000813566 0)
(2.99495 0.00194989 0)
(2.98767 0.00492042 0)
(2.96915 0.0121061 0)
(2.92093 0.0312397 0)
(2.78838 0.0836496 0)
(2.40181 0.239948 0)
(1.6048 0.660877 0)
(1.18504 0.811183 0)
(1.13288 0.83514 0)
(1.15028 0.841004 0)
(1.19884 0.836158 0)
(1.25095 0.842309 0)
(1.304 0.853377 0)
(1.36697 0.861218 0)
(3 1.67319e-08 0)
(3 1.01795e-07 0)
(3 3.57051e-07 0)
(3 9.90431e-07 0)
(2.99999 2.63095e-06 0)
(2.99998 6.50179e-06 0)
(2.99996 1.65032e-05 0)
(2.9999 3.94625e-05 0)
(2.99975 0.000100031 0)
(2.9994 0.000236053 0)
(2.99852 0.000599671 0)
(2.99639 0.0014171 0)
(2.99113 0.00358662 0)
(2.97804 0.00864711 0)
(2.94437 0.02201 0)
(2.8535 0.0569751 0)
(2.59439 0.157731 0)
(1.90403 0.464387 0)
(1.31475 0.800285 0)
(1.18645 0.845746 0)
(1.18738 0.863571 0)
(1.22753 0.858512 0)
(1.28171 0.852682 0)
(1.33385 0.855484 0)
(1.39085 0.858938 0)
(3 1.2122e-08 0)
(3 7.79812e-08 0)
(3 2.6315e-07 0)
(3 7.59117e-07 0)
(3 1.94683e-06 0)
(2.99999 4.98249e-06 0)
(2.99997 1.22127e-05 0)
(2.99993 3.03068e-05 0)
(2.99982 7.40491e-05 0)
(2.99957 0.000181753 0)
(2.99895 0.000445534 0)
(2.99744 0.00108938 0)
(2.99369 0.00268857 0)
(2.98447 0.00659523 0)
(2.96099 0.0165137 0)
(2.89882 0.0423187 0)
(2.72459 0.114542 0)
(2.21861 0.333462 0)
(1.51155 0.780362 0)
(1.24994 0.864981 0)
(1.22798 0.882356 0)
(1.25169 0.880673 0)
(1.30358 0.868075 0)
(1.35887 0.86245 0)
(1.41344 0.860819 0)
(3 8.86149e-09 0)
(3 5.78631e-08 0)
(3 1.93568e-07 0)
(3 5.63442e-07 0)
(3 1.43296e-06 0)
(2.99999 3.69588e-06 0)
(2.99998 8.96882e-06 0)
(2.99995 2.24589e-05 0)
(2.99988 5.43397e-05 0)
(2.99971 0.000134264 0)
(2.99928 0.000327116 0)
(2.99826 0.00080247 0)
(2.99572 0.00197088 0)
(2.98955 0.00483489 0)
(2.97409 0.0120229 0)
(2.93438 0.0304044 0)
(2.82698 0.0807081 0)
(2.51706 0.228677 0)
(1.80701 0.632968 0)
(1.36567 0.85566 0)
(1.28475 0.887171 0)
(1.28813 0.897131 0)
(1.32849 0.885995 0)
(1.3825 0.872984 0)
(1.43534 0.866575 0)
(3 6.23443e-09 0)
(3 4.1826e-08 0)
(3 1.37661e-07 0)
(3 4.05871e-07 0)
(3 1.01696e-06 0)
(2.99999 2.65614e-06 0)
(2.99999 6.32872e-06 0)
(2.99997 1.61107e-05 0)
(2.99992 3.80827e-05 0)
(2.9998 9.57375e-05 0)
(2.9995 0.000228051 0)
(2.99881 0.000566891 0)
(2.99705 0.00136476 0)
(2.99284 0.00336798 0)
(2.98228 0.00823563 0)
(2.95565 0.0205351 0)
(2.88465 0.0528278 0)
(2.6855 0.143256 0)
(2.12873 0.418564 0)
(1.52308 0.833965 0)
(1.33984 0.899193 0)
(1.32481 0.912495 0)
(1.35 0.905329 0)
(1.40141 0.887174 0)
(1.45544 0.875235 0)
(3 4.48336e-09 0)
(3 2.90448e-08 0)
(3 9.87611e-08 0)
(3 2.81945e-07 0)
(3 7.27527e-07 0)
(3 1.85764e-06 0)
(2.99999 4.48843e-06 0)
(2.99998 1.13456e-05 0)
(2.99994 2.67962e-05 0)
(2.99986 6.79348e-05 0)
(2.99967 0.000159376 0)
(2.9992 0.000404724 0)
(2.99805 0.000951364 0)
(2.99527 0.00240812 0)
(2.98838 0.00575079 0)
(2.97132 0.0145018 0)
(2.92707 0.0363827 0)
(2.80719 0.097056 0)
(2.45952 0.277536 0)
(1.78895 0.709989 0)
(1.43574 0.885578 0)
(1.37529 0.914488 0)
(1.38099 0.920588 0)
(1.42185 0.904944 0)
(1.47486 0.885502 0)
(3 3.26218e-09 0)
(3 1.9428e-08 0)
(3 6.98827e-08 0)
(3 1.88755e-07 0)
(3 5.12772e-07 0)
(3 1.24158e-06 0)
(2.99999 3.16328e-06 0)
(2.99998 7.547e-06 0)
(2.99996 1.88005e-05 0)
(2.99991 4.5191e-05 0)
(2.99978 0.000110808 0)
(2.99947 0.000269433 0)
(2.99872 0.000653229 0)
(2.99684 0.00160703 0)
(2.99235 0.00387545 0)
(2.98111 0.0096288 0)
(2.95277 0.0237553 0)
(2.8774 0.061593 0)
(2.66536 0.167985 0)
(2.10284 0.481044 0)
(1.57531 0.853297 0)
(1.42966 0.917586 0)
(1.4158 0.931747 0)
(1.43989 0.923722 0)
(1.489 0.900583 0)
(3 2.16938e-09 0)
(3 1.34866e-08 0)
(3 4.67011e-08 0)
(3 1.30847e-07 0)
(3 3.43992e-07 0)
(3 8.53603e-07 0)
(3 2.13777e-06 0)
(2.99999 5.15082e-06 0)
(2.99998 1.27789e-05 0)
(2.99994 3.06101e-05 0)
(2.99986 7.58556e-05 0)
(2.99965 0.000181363 0)
(2.99916 0.000449071 0)
(2.99796 0.00107839 0)
(2.99506 0.00266384 0)
(2.98786 0.00647004 0)
(2.97006 0.0160485 0)
(2.92384 0.040581 0)
(2.79842 0.107654 0)
(2.43668 0.308521 0)
(1.81685 0.742642 0)
(1.51314 0.904536 0)
(1.46012 0.933377 0)
(1.46562 0.938983 0)
(1.50398 0.921151 0)
(3 1.42218e-09 0)
(3 9.18136e-09 0)
(3 3.08893e-08 0)
(3 8.89873e-08 0)
(3 2.27208e-07 0)
(3 5.79989e-07 0)
(3 1.41076e-06 0)
(2.99999 3.49244e-06 0)
(2.99998 8.43922e-06 0)
(2.99996 2.06625e-05 0)
(2.99991 5.0107e-05 0)
(2.99978 0.000121816 0)
(2.99947 0.000296755 0)
(2.99869 0.000719226 0)
(2.99684 0.0017611 0)
(2.99226 0.00427414 0)
(2.9811 0.0105341 0)
(2.95266 0.0261735 0)
(2.87781 0.0675975 0)
(2.6667 0.185567 0)
(2.1276 0.519438 0)
(1.64933 0.869344 0)
(1.51496 0.934717 0)
(1.49887 0.949028 0)
(1.51802 0.940843 0)
(3 9.72217e-10 0)
(3 5.98694e-09 0)
(3 2.08319e-08 0)
(3 5.8069e-08 0)
(3 1.52521e-07 0)
(3 3.78672e-07 0)
(3 9.45078e-07 0)
(3 2.27399e-06 0)
(2.99999 5.64485e-06 0)
(2.99998 1.34382e-05 0)
(2.99994 3.33352e-05 0)
(2.99986 7.93114e-05 0)
(2.99966 0.000196206 0)
(2.99918 0.000468703 0)
(2.99802 0.00115418 0)
(2.99517 0.00278261 0)
(2.98827 0.00683644 0)
(2.97103 0.0167764 0)
(2.92675 0.0424058 0)
(2.80746 0.111964 0)
(2.46494 0.319768 0)
(1.88783 0.745931 0)
(1.59813 0.915092 0)
(1.54244 0.946676 0)
(1.54264 0.9528 0)
(3 6.01357e-10 0)
(3 3.98129e-09 0)
(3 1.31837e-08 0)
(3 3.8578e-08 0)
(3 9.69446e-08 0)
(3 2.50913e-07 0)
(3 5.98399e-07 0)
(3 1.5054e-06 0)
(2.99999 3.56659e-06 0)
(2.99999 8.8584e-06 0)
(2.99996 2.11015e-05 0)
(2.99991 5.18723e-05 0)
(2.99979 0.000124862 0)
(2.99949 0.000303025 0)
(2.99877 0.000739102 0)
(2.99699 0.00177705 0)
(2.99276 0.00438573 0)
(2.98218 0.0105982 0)
(2.95577 0.0265391 0)
(2.88636 0.0677591 0)
(2.6918 0.185385 0)
(2.19673 0.511386 0)
(1.73672 0.872575 0)
(1.59651 0.944454 0)
(1.57525 0.959472 0)
(3 3.90684e-10 0)
(3 2.53894e-09 0)
(3 8.51824e-09 0)
(3 2.4546e-08 0)
(3 6.2583e-08 0)
(3 1.59202e-07 0)
(3 3.85811e-07 0)
(3 9.5386e-07 0)
(3 2.29072e-06 0)
(2.99999 5.60482e-06 0)
(2.99998 1.34976e-05 0)
(2.99995 3.27972e-05 0)
(2.99987 7.94036e-05 0)
(2.99969 0.000191495 0)
(2.99925 0.000467482 0)
(2.9982 0.00112067 0)
(2.99562 0.00275133 0)
(2.98943 0.00663837 0)
(2.97404 0.0163814 0)
(2.93499 0.0410265 0)
(2.83111 0.107678 0)
(2.53433 0.304833 0)
(1.98836 0.719233 0)
(1.68626 0.911836 0)
(1.62145 0.951383 0)
(3 2.55967e-10 0)
(3 1.55224e-09 0)
(3 5.48303e-09 0)
(3 1.49978e-08 0)
(3 4.00428e-08 0)
(3 9.73927e-08 0)
(3 2.45932e-07 0)
(3 5.8359e-07 0)
(3 1.45086e-06 0)
(2.99999 3.43442e-06 0)
(2.99999 8.46989e-06 0)
(2.99997 2.01517e-05 0)
(2.99992 4.92126e-05 0)
(2.99981 0.000118214 0)
(2.99955 0.000285728 0)
(2.99889 0.000693306 0)
(2.99735 0.00166153 0)
(2.99352 0.00407262 0)
(2.98431 0.00980087 0)
(2.96105 0.0243104 0)
(2.90089 0.0614074 0)
(2.73445 0.165363 0)
(2.29787 0.455194 0)
(1.83478 0.843163 0)
(1.6758 0.938399 0)
(3 1.54771e-10 0)
(3 9.80307e-10 0)
(3 3.34042e-09 0)
(3 9.48162e-09 0)
(3 2.44372e-08 0)
(3 6.1376e-08 0)
(3 1.504e-07 0)
(3 3.65654e-07 0)
(3 8.89977e-07 0)
(3 2.13797e-06 0)
(2.99999 5.22203e-06 0)
(2.99998 1.2457e-05 0)
(2.99995 3.05069e-05 0)
(2.99989 7.26298e-05 0)
(2.99973 0.000178138 0)
(2.99935 0.000424035 0)
(2.99843 0.0010398 0)
(2.99621 0.00248877 0)
(2.99087 0.00610073 0)
(2.97768 0.0148292 0)
(2.94452 0.0370712 0)
(2.85743 0.0960592 0)
(2.60996 0.267771 0)
(2.10104 0.661729 0)
(1.77552 0.898511 0)
(3 9.39068e-11 0)
(3 6.00873e-10 0)
(3 2.04324e-09 0)
(3 5.8062e-09 0)
(3 1.49153e-08 0)
(3 3.76826e-08 0)
(3 9.10396e-08 0)
(3 2.24919e-07 0)
(3 5.35223e-07 0)
(3 1.31465e-06 0)
(3 3.12328e-06 0)
(2.99999 7.62886e-06 0)
(2.99997 1.82002e-05 0)
(2.99993 4.41921e-05 0)
(2.99984 0.000105959 0)
(2.99961 0.00025571 0)
(2.99907 0.000617135 0)
(2.99774 0.00148113 0)
(2.99458 0.00360155 0)
(2.98676 0.00866826 0)
(2.96759 0.0213347 0)
(2.91817 0.0534057 0)
(2.78422 0.141325 0)
(2.42063 0.391355 0)
(1.9533 0.79269 0)
(3 5.71223e-11 0)
(3 3.70075e-10 0)
(3 1.23684e-09 0)
(3 3.57531e-09 0)
(3 9.02868e-09 0)
(3 2.30377e-08 0)
(3 5.5453e-08 0)
(3 1.36607e-07 0)
(3 3.27841e-07 0)
(3 7.9408e-07 0)
(3 1.9186e-06 0)
(2.99999 4.5926e-06 0)
(2.99998 1.12121e-05 0)
(2.99996 2.65554e-05 0)
(2.99991 6.53439e-05 0)
(2.99978 0.000153919 0)
(2.99946 0.000380278 0)
(2.9987 0.000895125 0)
(2.99685 0.00221346 0)
(2.99243 0.00525424 0)
(2.98155 0.0130017 0)
(2.95446 0.0317986 0)
(2.88394 0.0819069 0)
(2.6863 0.223222 0)
(2.23468 0.578005 0)
(3 3.45464e-11 0)
(3 2.16814e-10 0)
(3 7.50448e-10 0)
(3 2.08928e-09 0)
(3 5.46766e-09 0)
(3 1.35147e-08 0)
(3 3.3275e-08 0)
(3 8.06712e-08 0)
(3 1.94161e-07 0)
(3 4.72884e-07 0)
(3 1.122e-06 0)
(3 2.75259e-06 0)
(2.99999 6.48436e-06 0)
(2.99998 1.59788e-05 0)
(2.99995 3.75033e-05 0)
(2.99987 9.24767e-05 0)
(2.99969 0.000217598 0)
(2.99926 0.000534449 0)
(2.99821 0.00126474 0)
(2.99574 0.00309658 0)
(2.98965 0.00740974 0)
(2.97495 0.0182119 0)
(2.93767 0.045167 0)
(2.83929 0.117947 0)
(2.56597 0.327304 0)
(3 2.07187e-11 0)
(3 1.27153e-10 0)
(3 4.44464e-10 0)
(3 1.22563e-09 0)
(3 3.23162e-09 0)
(3 7.92519e-09 0)
(3 1.96539e-08 0)
(3 4.70553e-08 0)
(3 1.14787e-07 0)
(3 2.73876e-07 0)
(3 6.63313e-07 0)
(3 1.58654e-06 0)
(2.99999 3.82036e-06 0)
(2.99999 9.18197e-06 0)
(2.99997 2.19582e-05 0)
(2.99993 5.30964e-05 0)
(2.99982 0.000126228 0)
(2.99957 0.000306604 0)
(2.99899 0.000726577 0)
(2.99754 0.00176916 0)
(2.99413 0.00420781 0)
(2.98573 0.0102705 0)
(2.96513 0.0249121 0)
(2.91227 0.0627455 0)
(2.76829 0.16664 0)
(3 1.18307e-11 0)
(3 7.57864e-11 0)
(3 2.55593e-10 0)
(3 7.303e-10 0)
(3 1.86225e-09 0)
(3 4.69031e-09 0)
(3 1.13498e-08 0)
(3 2.76938e-08 0)
(3 6.65087e-08 0)
(3 1.6014e-07 0)
(3 3.85714e-07 0)
(3 9.21559e-07 0)
(3 2.23144e-06 0)
(2.99999 5.2981e-06 0)
(2.99998 1.28855e-05 0)
(2.99996 3.04968e-05 0)
(2.9999 7.42999e-05 0)
(2.99976 0.000175882 0)
(2.99943 0.000427751 0)
(2.99864 0.00101762 0)
(2.99673 0.00246766 0)
(2.99217 0.00592372 0)
(2.98099 0.0144174 0)
(2.95333 0.0354967 0)
(2.88157 0.0907202 0)
(3 6.96221e-12 0)
(3 4.26925e-11 0)
(3 1.49633e-10 0)
(3 4.10645e-10 0)
(3 1.08628e-09 0)
(3 2.64304e-09 0)
(3 6.57802e-09 0)
(3 1.56732e-08 0)
(3 3.81168e-08 0)
(3 9.10921e-08 0)
(3 2.18507e-07 0)
(3 5.26619e-07 0)
(3 1.24894e-06 0)
(3 3.03729e-06 0)
(2.99999 7.14236e-06 0)
(2.99998 1.74727e-05 0)
(2.99995 4.09118e-05 0)
(2.99987 0.000100197 0)
(2.99969 0.000234905 0)
(2.99924 0.000573692 0)
(2.99821 0.0013517 0)
(2.99568 0.0032916 0)
(2.98969 0.00784158 0)
(2.97493 0.0191802 0)
(2.9382 0.0473188 0)
(3 3.81539e-12 0)
(3 2.46349e-11 0)
(3 8.24302e-11 0)
(3 2.36995e-10 0)
(3 5.98567e-10 0)
(3 1.51693e-09 0)
(3 3.63327e-09 0)
(3 8.89496e-09 0)
(3 2.11506e-08 0)
(3 5.10348e-08 0)
(3 1.21895e-07 0)
(3 2.90953e-07 0)
(3 6.99614e-07 0)
(3 1.65742e-06 0)
(2.99999 4.00887e-06 0)
(2.99999 9.43012e-06 0)
(2.99997 2.293e-05 0)
(2.99993 5.37221e-05 0)
(2.99982 0.000130804 0)
(2.99957 0.000306357 0)
(2.99899 0.000745257 0)
(2.99757 0.00175322 0)
(2.99421 0.00424976 0)
(2.98599 0.0101404 0)
(2.96595 0.0247149 0)
(3 2.07045e-12 0)
(3 1.34371e-11 0)
(3 4.51887e-11 0)
(3 1.29107e-10 0)
(3 3.27641e-10 0)
(3 8.26353e-10 0)
(3 1.9739e-09 0)
(3 4.84387e-09 0)
(3 1.14104e-08 0)
(3 2.77444e-08 0)
(3 6.52185e-08 0)
(3 1.57622e-07 0)
(3 3.72088e-07 0)
(3 8.92545e-07 0)
(3 2.1191e-06 0)
(2.99999 5.0429e-06 0)
(2.99998 1.20734e-05 0)
(2.99996 2.84569e-05 0)
(2.9999 6.8628e-05 0)
(2.99975 0.000160852 0)
(2.99942 0.00038908 0)
(2.9986 0.000911918 0)
(2.99667 0.00220547 0)
(2.99194 0.00520751 0)
(2.98068 0.0126448 0)
(3 1.07919e-12 0)
(3 6.93874e-12 0)
(3 2.38259e-11 0)
(3 6.61957e-11 0)
(3 1.71884e-10 0)
(3 4.21908e-10 0)
(3 1.02466e-09 0)
(3 2.46549e-09 0)
(3 5.8182e-09 0)
(3 1.40553e-08 0)
(3 3.26156e-08 0)
(3 7.93708e-08 0)
(3 1.82028e-07 0)
(3 4.44641e-07 0)
(3 1.01709e-06 0)
(3 2.47333e-06 0)
(2.99999 5.66901e-06 0)
(2.99997 1.36732e-05 0)
(2.99993 3.16029e-05 0)
(2.99984 7.49997e-05 0)
(2.99962 0.000175311 0)
(2.99908 0.00040951 0)
(2.99779 0.000968739 0)
(2.99468 0.00223188 0)
(2.98707 0.00533104 0)
(3 5.3717e-13 0)
(3 3.51469e-12 0)
(3 1.16382e-11 0)
(3 3.33698e-11 0)
(3 8.33474e-11 0)
(3 2.08984e-10 0)
(3 4.97534e-10 0)
(3 1.18636e-09 0)
(3 2.82942e-09 0)
(3 6.53103e-09 0)
(3 1.58139e-08 0)
(3 3.55998e-08 0)
(3 8.73583e-08 0)
(3 1.93164e-07 0)
(3 4.77195e-07 0)
(3 1.04567e-06 0)
(2.99999 2.56655e-06 0)
(2.99998 5.64141e-06 0)
(2.99995 1.36302e-05 0)
(2.99987 3.01918e-05 0)
(2.9997 7.10647e-05 0)
(2.99926 0.000160596 0)
(2.99819 0.000363749 0)
(2.99557 0.000839639 0)
(2.98914 0.00184542 0)
(3 2.75135e-13 0)
(3 1.61277e-12 0)
(3 5.50937e-12 0)
(3 1.54693e-11 0)
(3 3.91314e-11 0)
(3 9.59549e-11 0)
(3 2.31224e-10 0)
(3 5.35522e-10 0)
(3 1.29715e-09 0)
(3 2.89725e-09 0)
(3 7.11885e-09 0)
(3 1.54597e-08 0)
(3 3.86731e-08 0)
(3 8.19189e-08 0)
(3 2.07225e-07 0)
(3 4.33096e-07 0)
(2.99999 1.09295e-06 0)
(2.99998 2.29194e-06 0)
(2.99995 5.64579e-06 0)
(2.99989 1.21015e-05 0)
(2.99973 2.86731e-05 0)
(2.99933 6.34273e-05 0)
(2.99835 0.000142067 0)
(2.99591 0.000330494 0)
(2.98993 0.000703703 0)
(3 1.2554e-13 0)
(3 7.09191e-13 0)
(3 2.37441e-12 0)
(3 6.86292e-12 0)
(3 1.67869e-11 0)
(3 4.25734e-11 0)
(3 9.62607e-11 0)
(3 2.38508e-10 0)
(3 5.18773e-10 0)
(3 1.29344e-09 0)
(3 2.74576e-09 0)
(3 6.86019e-09 0)
(3 1.44933e-08 0)
(3 3.5617e-08 0)
(3 7.68624e-08 0)
(3 1.81236e-07 0)
(2.99999 4.10241e-07 0)
(2.99998 9.04543e-07 0)
(2.99996 2.17235e-06 0)
(2.99989 4.45435e-06 0)
(2.99974 1.14659e-05 0)
(2.99935 2.12089e-05 0)
(2.99841 5.94909e-05 0)
(2.99604 0.000100633 0)
(2.99024 0.000293575 0)
(3 4.4498e-14 0)
(3 2.947e-13 0)
(3 9.77526e-13 0)
(3 2.78333e-12 0)
(3 7.0007e-12 0)
(3 1.70462e-11 0)
(3 3.97728e-11 0)
(3 9.40128e-11 0)
(3 2.14078e-10 0)
(3 4.97171e-10 0)
(3 1.13434e-09 0)
(3 2.58735e-09 0)
(3 5.92032e-09 0)
(3 1.34438e-08 0)
(3 3.06055e-08 0)
(3 6.88384e-08 0)
(2.99999 1.60938e-07 0)
(2.99998 3.4522e-07 0)
(2.99996 8.24147e-07 0)
(2.9999 1.7564e-06 0)
(2.99974 4.23242e-06 0)
(2.99937 8.61199e-06 0)
(2.99842 2.1688e-05 0)
(2.99611 4.29041e-05 0)
(2.99028 0.000106742 0)
(3 2.63944e-14 0)
(3 9.74213e-14 0)
(3 5.30575e-13 0)
(3 8.49215e-13 0)
(3 3.53487e-12 0)
(3 5.33648e-12 0)
(3 2.08842e-11 0)
(3 2.80269e-11 0)
(3 1.16575e-10 0)
(3 1.5312e-10 0)
(3 6.2281e-10 0)
(3 8.49795e-10 0)
(3 3.12224e-09 0)
(3 5.27614e-09 0)
(3 1.44138e-08 0)
(3 3.33747e-08 0)
(2.99999 6.09954e-08 0)
(2.99998 2.08321e-07 0)
(2.99996 2.39571e-07 0)
(2.9999 1.31497e-06 0)
(2.99975 8.57818e-07 0)
(2.99937 7.99095e-06 0)
(2.99844 3.46733e-06 0)
(2.99611 4.70248e-05 0)
(2.99039 2.29659e-05 0)
(3 -3.36583e-15 0)
(3 6.51284e-14 0)
(3 5.30589e-14 0)
(3 6.16669e-13 0)
(3 4.77393e-13 0)
(3 3.96572e-12 0)
(3 1.43194e-12 0)
(3 2.80071e-11 0)
(3 -4.70501e-12 0)
(3 1.88037e-10 0)
(3 -8.03399e-11 0)
(3 1.1284e-09 0)
(3 -5.25918e-10 0)
(3 6.26961e-09 0)
(3 -2.6213e-09 0)
(3 3.32007e-08 0)
(2.99999 -7.27874e-09 0)
(2.99998 1.52131e-07 0)
(2.99996 4.81908e-08 0)
(2.9999 5.94548e-07 0)
(2.99975 8.93913e-07 0)
(2.99937 1.60177e-06 0)
(2.99845 9.44306e-06 0)
(2.99612 9.49851e-07 0)
(2.99042 6.14584e-05 0)
(3 -6.04526e-15 0)
(3 1.37044e-14 0)
(3 -2.75647e-14 0)
(3 1.05063e-13 0)
(3 3.51258e-14 0)
(3 1.13607e-12 0)
(3 -1.87879e-12 0)
(3 1.40316e-11 0)
(3 -2.70879e-11 0)
(3 1.17463e-10 0)
(3 -2.19234e-10 0)
(3 8.08955e-10 0)
(3 -1.4041e-09 0)
(3 4.84733e-09 0)
(3 -7.46806e-09 0)
(3 2.59356e-08 0)
(2.99999 -3.1596e-08 0)
(2.99998 1.17929e-07 0)
(2.99996 -8.85436e-08 0)
(2.9999 3.86404e-07 0)
(2.99975 1.97007e-07 0)
(2.99937 1.71261e-07 0)
(2.99844 5.10532e-06 0)
(2.99615 -8.46716e-06 0)
(2.99042 4.10226e-05 0)
(1.22119 1.05401 0)
(1.41409 0.814897 0)
(0.935388 0.480554 0)
(0.156973 0.388397 0)
(-0.343601 0.0858703 0)
(-0.445254 -0.00351048 0)
(-0.651567 -0.0228852 0)
(-0.748624 -0.0385575 0)
(-0.784451 -0.0374358 0)
(-0.797823 -0.0182063 0)
(-0.815328 0.00382935 0)
(-0.845928 0.0152573 0)
(-0.880981 0.0165755 0)
(-0.912092 0.0126684 0)
(-0.938289 0.00778774 0)
(-0.96346 0.00486536 0)
(-0.98975 0.00369433 0)
(-1.01668 0.00338674 0)
(-1.0432 0.00323574 0)
(-1.06852 0.00289495 0)
(-1.09321 0.00240126 0)
(-1.11847 0.00252854 0)
(-1.14026 0.00402928 0)
(-1.15408 0.00424236 0)
(-1.16178 0.00351039 0)
(-1.16488 0.00243979 0)
(-1.15719 0.000692388 0)
(-1.1307 -0.00271278 0)
(-1.08342 -0.00744948 0)
(-1.01873 -0.012583 0)
(-0.942079 -0.0171476 0)
(-0.858358 -0.0209383 0)
(-0.771205 -0.0238202 0)
(-0.682958 -0.0261119 0)
(-0.596359 -0.0275933 0)
(-0.513162 -0.0284642 0)
(-0.433998 -0.0292405 0)
(-0.358781 -0.0303265 0)
(-0.28475 -0.0328837 0)
(-0.214679 -0.0335704 0)
(-0.147374 -0.0337557 0)
(-0.0825932 -0.0350762 0)
(-0.0204057 -0.0378936 0)
(0.0475036 -0.0329911 0)
(0.102532 -0.0294673 0)
(0.15747 -0.0281101 0)
(0.208897 -0.0268477 0)
(0.257915 -0.0256063 0)
(0.303342 -0.0242184 0)
(0.346368 -0.0231475 0)
(0.390766 -0.0228529 0)
(0.435452 -0.0226072 0)
(0.477837 -0.0216951 0)
(0.518021 -0.0205751 0)
(0.55659 -0.0196522 0)
(0.593656 -0.0187812 0)
(0.629411 -0.0180229 0)
(0.663753 -0.0172684 0)
(0.696785 -0.0165635 0)
(0.728458 -0.0158914 0)
(0.758786 -0.0152555 0)
(0.787749 -0.0146623 0)
(0.815314 -0.0141048 0)
(0.841459 -0.0135883 0)
(0.866141 -0.0131135 0)
(0.889322 -0.0126793 0)
(0.910972 -0.0122867 0)
(0.931064 -0.0119344 0)
(0.949584 -0.0116155 0)
(0.966536 -0.0113189 0)
(0.981944 -0.011035 0)
(0.996224 -0.0107974 0)
(1.00983 -0.0105735 0)
(1.02275 -0.0103745 0)
(1.03477 -0.0101929 0)
(1.04604 -0.00998275 0)
(1.05715 -0.00972636 0)
(1.06853 -0.0094005 0)
(1.0801 -0.00907307 0)
(1.09172 -0.0087317 0)
(1.10368 -0.00836496 0)
(1.11652 -0.00795537 0)
(1.13047 -0.0075203 0)
(1.14534 -0.0070609 0)
(1.16104 -0.00662803 0)
(1.17739 -0.0062334 0)
(1.19423 -0.00586479 0)
(1.21142 -0.00550413 0)
(1.22887 -0.00514257 0)
(1.24647 -0.00477048 0)
(1.2641 -0.00438497 0)
(1.28164 -0.00398148 0)
(1.29896 -0.00355606 0)
(1.31587 -0.00309822 0)
(1.33214 -0.00259425 0)
(1.34743 -0.00202619 0)
(1.36127 -0.00136907 0)
(1.37305 -0.000633431 0)
(1.38184 0.000206711 0)
(1.38847 0.00112015 0)
(1.29571 0.962658 0)
(1.44125 0.673074 0)
(1.27268 0.4168 0)
(0.884849 0.397295 0)
(0.639745 0.338527 0)
(0.537345 0.262428 0)
(0.388608 0.203363 0)
(0.200453 0.146592 0)
(0.0112108 0.0763783 0)
(-0.203491 0.0249129 0)
(-0.341856 0.0236794 0)
(-0.458543 0.0246085 0)
(-0.539839 0.0218772 0)
(-0.590217 0.0175727 0)