/*--------------------------------*- C++ -*----------------------------------*\
  =========                 |
  \\      /  F ield         | OpenFOAM: The Open Source CFD Toolbox
   \\    /   O peration     | Website:  https://openfoam.org
    \\  /    A nd           | Version:  13
     \\/     M anipulation  |
\*---------------------------------------------------------------------------*/
FoamFile
{
    format      ascii;
    class       volScalarField;
    location    "8";
    object      Ma;
}
// * * * * * * * * * * * * * * * * * * * * * * * * * * * * * * * * * * * * * //

dimensions      [];

internalField   nonuniform List<scalar> 
5250
(
2.99999
2.99996
2.99988
2.99971
2.99919
2.99816
2.99511
2.98858
2.97068
2.92917
2.82159
2.56016
1.98186
1.01531
0.421072
0.323604
0.34071
0.337411
0.304672
0.252166
0.20272
0.161632
0.120598
0.075197
0.0416278
2.99999
2.99996
2.99988
2.99971
2.9992
2.99818
2.99517
2.9887
2.97105
2.92994
2.8237
2.56496
1.99155
1.02788
0.428987
0.324603
0.342181
0.339515
0.30717
0.255547
0.207331
0.167653
0.128861
0.0887456
0.0648701
2.99999
2.99996
2.99989
2.99971
2.99925
2.99814
2.99547
2.98855
2.97253
2.93046
2.82934
2.57431
2.01266
1.05616
0.447029
0.327785
0.346732
0.34588
0.314807
0.265513
0.22022
0.184035
0.150279
0.118725
0.103126
3
2.99996
2.9999
2.99971
2.99931
2.99818
2.99565
2.9891
2.97319
2.93377
2.83501
2.59087
2.04448
1.10097
0.474648
0.332364
0.35403
0.35631
0.327262
0.281326
0.239955
0.208193
0.180168
0.155828
0.144914
3
2.99997
2.9999
2.99973
2.99932
2.99833
2.99576
2.98994
2.97407
2.93809
2.84288
2.61272
2.08839
1.1638
0.511916
0.338411
0.363934
0.37049
0.343952
0.301958
0.264971
0.237976
0.215388
0.196843
0.189079
3
2.99997
2.9999
2.99976
2.99935
2.99849
2.99596
2.99079
2.97565
2.94275
2.85354
2.63973
2.1448
1.24767
0.559351
0.346776
0.377218
0.388934
0.365086
0.327434
0.294963
0.272905
0.255731
0.242619
0.238259
3
2.99997
2.99992
2.99977
2.99943
2.99858
2.99642
2.99143
2.97805
2.94754
2.86699
2.67167
2.21403
1.35612
0.617547
0.360016
0.395588
0.412459
0.391024
0.35779
0.329886
0.312941
0.301718
0.294903
0.295782
3
2.99998
2.99993
2.99978
2.99952
2.99864
2.99703
2.99184
2.98147
2.95164
2.88366
2.70638
2.29543
1.49068
0.687626
0.383855
0.422322
0.442696
0.422991
0.393957
0.370417
0.358838
0.354372
0.356117
0.367365
3
2.99998
2.99993
2.99983
2.99955
2.99888
2.99727
2.99308
2.98355
2.95805
2.89872
2.74517
2.38467
1.65242
0.770513
0.42463
0.461849
0.481133
0.462964
0.437175
0.417785
0.411267
0.414798
0.430289
0.463862
3
2.99999
2.99994
2.99986
2.99958
2.99908
2.99746
2.99432
2.98491
2.96473
2.91004
2.78007
2.46016
1.79449
0.853776
0.46507
0.499415
0.516876
0.505187
0.484465
0.470613
0.469735
0.485878
0.527887
0.628376
3
2.99999
2.99995
2.99987
2.99966
2.99915
2.99787
2.99487
2.98691
2.96889
2.92103
2.8068
2.52154
1.91076
0.957638
0.522667
0.525888
0.5406
0.541439
0.530067
0.524014
0.532384
0.566612
0.64554
0.804179
3
2.99999
2.99996
2.99988
2.99971
2.99923
2.99823
2.99527
2.98927
2.97155
2.93335
2.82945
2.58266
2.02893
1.10003
0.600513
0.54262
0.559531
0.570482
0.57053
0.574511
0.594358
0.64356
0.739686
0.896866
3
2.99999
2.99997
2.9999
2.99975
2.99937
2.9984
2.99621
2.99018
2.97702
2.94089
2.85685
2.64046
2.15372
1.27437
0.692997
0.559529
0.577026
0.595822
0.606541
0.620552
0.650561
0.706443
0.798734
0.928203
3
3
2.99997
2.99992
2.99978
2.9995
2.99863
2.99693
2.99167
2.98115
2.95061
2.88173
2.70141
2.28652
1.48445
0.803896
0.58966
0.603404
0.624058
0.641948
0.662411
0.697501
0.753883
0.836025
0.943377
3.00001
3
2.99998
2.99993
2.99984
2.99955
2.999
2.99731
2.9938
2.98403
2.96191
2.90433
2.76496
2.42886
1.7431
0.934688
0.644466
0.645793
0.661516
0.681276
0.702954
0.737584
0.790592
0.863655
0.955941
3.00001
3
2.99999
2.99995
2.99987
2.99965
2.99919
2.99784
2.99511
2.98696
2.97012
2.9228
2.81372
2.53939
1.95557
1.07266
0.706709
0.686921
0.701283
0.720443
0.74194
0.774454
0.822269
0.886714
0.967378
3.00001
3
2.99999
2.99997
2.99989
2.99974
2.99931
2.99838
2.99586
2.99001
2.97529
2.93915
2.84954
2.62768
2.13021
1.26766
0.798799
0.717924
0.731079
0.750839
0.775556
0.807299
0.851005
0.907871
0.977992
3.00001
3
2.99999
2.99997
2.99993
2.99978
2.9995
2.99864
2.99691
2.99193
2.98101
2.95186
2.88294
2.70756
2.30147
1.52153
0.921854
0.753837
0.758722
0.777637
0.804823
0.836208
0.876623
0.927548
0.988708
3.00001
3
3
2.99998
2.99994
2.99984
2.99961
2.99901
2.99759
2.99412
2.98533
2.9648
2.91205
2.78491
2.47762
1.84111
1.07673
0.813033
0.796796
0.810356
0.835495
0.865612
0.901827
0.946893
1.00044
3.00001
3.00001
3
2.99999
2.99996
2.99988
2.99971
2.99925
2.99819
2.99556
2.98896
2.97346
2.93364
2.83828
2.60129
2.08339
1.25227
0.882611
0.832366
0.843314
0.865478
0.894575
0.927049
0.96655
1.01331
3.00001
3.00001
3
2.99999
2.99997
2.99992
2.99978
2.99944
2.99866
2.99657
2.99204
2.97931
2.95163
2.8769
2.70043
2.28495
1.51208
0.999173
0.871012
0.873307
0.891527
0.919868
0.95065
0.985945
1.02714
3.00001
3.00001
3
3
2.99998
2.99994
2.99985
2.99958
2.99907
2.99747
2.9943
2.9851
2.9652
2.91208
2.7866
2.48244
1.85335
1.15783
0.928851
0.908483
0.920343
0.944615
0.974333
1.00591
1.04191
3.00001
3.00001
3
3
2.99999
2.99996
2.99989
2.99971
2.99932
2.9982
2.99594
2.98919
2.97554
2.9366
2.84919
2.62627
2.13982
1.35802
1.00537
0.943905
0.950765
0.970239
0.997235
1.02623
1.05805
3.00001
3.00001
3.00001
3
2.99999
2.99997
2.99992
2.99981
2.99948
2.99884
2.99681
2.99301
2.98124
2.95702
2.89009
2.73439
2.36314
1.65013
1.13107
0.988419
0.981494
0.993462
1.01715
1.04556
1.07498
3.00001
3.00001
3.00001
3
3
2.99998
2.99995
2.99986
2.99968
2.99911
2.99805
2.99472
2.98825
2.96928
2.92835
2.82021
2.5705
2.02531
1.31397
1.05575
1.01696
1.02207
1.04028
1.06555
1.09262
3.00001
3.00001
3.00001
3.00001
3
2.99999
2.99997
2.99991
2.99976
2.99944
2.99855
2.99656
2.99153
2.97924
2.94975
2.87598
2.69784
2.2884
1.55939
1.14974
1.05371
1.04991
1.06165
1.08419
1.11041
3.00001
3.00001
3.00001
3.00001
3
3
2.99998
2.99994
2.99985
2.9996
2.99906
2.99766
2.9943
2.98628
2.96594
2.91825
2.79794
2.51709
1.92598
1.309
1.10757
1.08077
1.08652
1.10433
1.12776
3.00001
3.00001
3.00001
3.00001
3.00001
3
2.99999
2.99996
2.9999
2.99973
2.9994
2.99835
2.99643
2.99035
2.97831
2.9442
2.86764
2.67394
2.24338
1.53454
1.19097
1.11652
1.11276
1.12349
1.14276
3.00001
3.00001
3.00001
3.00001
3.00001
3
3
2.99998
2.99993
2.99984
2.99956
2.99903
2.99743
2.9941
2.98503
2.96445
2.91218
2.78672
2.48953
1.88404
1.33585
1.16457
1.14032
1.1443
1.1582
3.00001
3.00001
3.00001
3.00001
3.00001
3.00001
3
2.99999
2.99996
2.9999
2.99973
2.99936
2.99838
2.9961
2.99055
2.97677
2.94429
2.86302
2.66989
2.23302
1.55705
1.24556
1.17578
1.16723
1.17145
3.00001
3.00001
3.00001
3.00001
3.00001
3.00001
3
3
2.99998
2.99994
2.99983
2.99959
2.99895
2.99758
2.99371
2.98578
2.96323
2.91454
2.78672
2.49676
1.90353
1.38556
1.21937
1.18944
1.18253
3.00001
3.00001
3.00001
3.00001
3.00001
3.00001
3.00001
3
2.99999
2.99996
2.9999
2.99973
2.99937
2.99841
2.9962
2.99077
2.9774
2.94589
2.86723
2.68088
2.25858
1.60625
1.29769
1.21573
1.18894
3.00001
3.00001
3.00001
3.00001
3.00001
3.00001
3.00001
3
3
2.99998
2.99994
2.99983
2.99961
2.999
2.99764
2.99422
2.98598
2.96634
2.91763
2.80151
2.52641
1.96627
1.43618
1.24544
1.18574
3.00001
3.00001
3.00001
3.00001
3.00001
3.00001
3.00001
3.00001
3
2.99999
2.99997
2.9999
2.99976
2.99935
2.99858
2.99617
2.99162
2.97795
2.94954
2.87323
2.69863
2.29569
1.6506
1.30348
1.16521
3.00001
3.00001
3.00001
3.00001
3.00001
3.00001
3.00001
3.00001
3
3
2.99998
2.99994
2.99984
2.99963
2.99902
2.99777
2.99432
2.98669
2.96727
2.92143
2.80939
2.54801
2.00851
1.40618
1.10312
3.00001
3.00001
3.00001
3.00001
3.00001
3.00001
3.00001
3.00001
3.00001
3
2.99999
2.99996
2.9999
2.99973
2.99935
2.99839
2.99608
2.99062
2.97658
2.94451
2.86207
2.66853
2.23248
1.51415
0.982
3.00001
3.00001
3.00001
3.00001
3.00001
3.00001
3.00001
3.00001
3.00001
3
2.99999
2.99997
2.99993
2.99979
2.99952
2.99871
2.99705
2.99239
2.982
2.95508
2.89069
2.73028
2.35936
1.64956
0.851623
3.00001
3.00001
3.00001
3.00001
3.00001
3.00001
3.00001
3.00001
3.00001
3
3
2.99998
2.99993
2.99983
2.99957
2.99888
2.99741
2.99314
2.9843
2.95881
2.90206
2.75145
2.40047
1.68303
0.744585
3.00001
3.00001
3.00001
3.00001
3.00001
3.00001
3.00001
3.00001
3.00001
3
3
2.99998
2.99994
2.99985
2.99958
2.99903
2.99737
2.99409
2.98396
2.96305
2.90378
2.76431
2.41775
1.70044
0.713477
3.00001
3.00001
3.00001
3.00001
3.00001
3.00001
3.00001
3.00001
3.00001
3
3
2.99998
2.99994
2.99986
2.99959
2.99908
2.99746
2.99423
2.98469
2.96373
2.90699
2.76985
2.43043
1.71916
0.719582
3.00001
3.00001
3.00001
3.00001
3.00001
3.00001
3.00001
3.00001
3.00001
3
3
2.99998
2.99995
2.99985
2.99964
2.99901
2.99775
2.99384
2.98601
2.96281
2.91112
2.77236
2.44176
1.73838
0.735239
3.00001
3.00001
3.00001
3.00001
3.00001
3.00001
3.00001
3.00001
3.00001
3
3
2.99998
2.99995
2.99985
2.99964
2.99902
2.99779
2.99394
2.98627
2.96338
2.91264
2.77609
2.45083
1.75585
0.753107
3.00001
3.00001
3.00001
3.00001
3.00001
3.00001
3.00001
3.00001
3.00001
3
3
2.99998
2.99995
2.99986
2.99962
2.99911
2.9976
2.99455
2.98526
2.96587
2.91108
2.78179
2.45723
1.77113
0.77079
3.00001
3.00001
3.00001
3.00001
3.00001
3.00001
3.00001
3.00001
3.00001
3
3
2.99998
2.99995
2.99986
2.99964
2.99909
2.9977
2.99444
2.98572
2.96573
2.91261
2.7838
2.46395
1.78387
0.786693
3.00001
3.00001
3.00001
3.00001
3.00001
3.00001
3.00001
3.00001
3.00001
3
3
2.99998
2.99995
2.99985
2.99966
2.99905
2.99782
2.99423
2.98635
2.96507
2.91463
2.78448
2.46999
1.79449
0.800102
3.00001
3.00001
3.00001
3.00001
3.00001
3.00001
3.00001
3.00001
3.00001
3
3
2.99998
2.99995
2.99985
2.99966
2.99904
2.99787
2.99416
2.98661
2.96495
2.9156
2.78567
2.47453
1.80361
0.810391
3.00001
3.00001
3.00001
3.00001
3.00001
3.00001
3.00001
3.00001
3.00001
3
3
2.99999
2.99994
2.99987
2.99962
2.99914
2.99768
2.99457
2.98596
2.96619
2.91456
2.78833
2.4773
1.81164
0.8178
3.00001
3.00001
3.00001
3.00001
3.00001
3.00001
3.00001
3.00001
3.00001
3
3
2.99999
2.99995
2.99987
2.99962
2.99915
2.99763
2.9947
2.98575
2.96675
2.91433
2.78997
2.47968
1.81933
0.822983
3.00001
3.00001
3.00001
3.00001
3.00001
3.00001
3.00001
3.00001
3.00001
3
3
2.99998
2.99995
2.99986
2.99965
2.99909
2.99776
2.9945
2.9861
2.96642
2.91503
2.79037
2.48164
1.82513
0.826063
3.00001
3.00001
3.00001
3.00001
3.00001
3.00001
3.00001
3.00001
3.00001
3
3
2.99998
2.99995
2.99986
2.99963
2.99913
2.99768
2.99466
2.98579
2.96696
2.91452
2.79131
2.48232
1.82812
0.827486
0.988056
0.804569
0.295393
0.249983
0.304835
0.402582
0.437601
0.465157
0.502897
0.543721
0.579475
0.610656
0.640826
0.671676
0.703256
0.727716
0.739384
0.742937
0.740111
0.727032
0.701306
0.665597
0.623268
0.578071
0.532706
0.488226
0.445462
0.404873
0.366251
0.329531
0.294263
0.260106
0.226824
0.193647
0.161523
0.130388
0.100343
0.0712307
0.0433638
0.0206536
0.0229599
0.0475317
0.0722786
0.0971202
0.121236
0.143719
0.165385
0.187674
0.210168
0.231796
0.252772
0.273101
0.293012
0.312416
0.331488
0.350128
0.368451
0.386383
0.40409
0.421388
0.438531
0.455323
0.471938
0.488283
0.504438
0.520406
0.536133
0.55178
0.567173
0.582486
0.597641
0.612651
0.627571
0.642345
0.657003
0.671558
0.685955
0.700255
0.714393
0.728406
0.742264
0.755996
0.769533
0.783017
0.796196
0.809446
0.822264
0.835243
0.847727
0.860353
0.872504
0.884656
0.896372
0.90789
0.918882
0.929396
0.938963
0.947405
0.953734
0.958195
0.972237
0.859372
0.602483
0.432832
0.305661
0.165881
0.0515618
0.146813
0.231812
0.296265
0.33974
0.372658
0.406566
0.441415
0.475925
0.504739
0.51914
0.521241
0.514939
0.498676
0.469038
0.430157
0.385817
0.340328
0.296022
0.253471
0.213122
0.175741
0.140611
0.107837
0.0776593
0.0519328
0.0376324
0.0452756
0.0664344
0.0906637
0.116005
0.141009
0.165667
0.189359
0.211952
0.233912
0.255799
0.277316
0.298551
0.318621
0.337924
0.357446
0.377562
0.39701
0.415764
0.433925
0.451754
0.469111
0.486227
0.502935
0.519378
0.53554
0.551396
0.567067
0.582384
0.597641
0.612461
0.627348
0.641782
0.656302
0.670452
0.684641
0.69854
0.712474
0.726122
0.739856
0.753273
0.766818
0.780033
0.793372
0.806395
0.819507
0.832312
0.845195
0.857729
0.870401
0.882618
0.895091
0.906979
0.919239
0.930828
0.942819
0.954148
0.965809
0.97688
0.988152
0.998939
1.00973
1.01994
1.02981
1.03871
1.04664
1.05251
1.05652
0.985958
0.958406
0.854979
0.759732
0.655126
0.539939
0.422139
0.316802
0.22517
0.142976
0.0751655
0.0816583
0.1319
0.180409
0.222257
0.256667
0.272675
0.268394
0.249745
0.232134
0.202131
0.166041
0.130479
0.0991487
0.0780726
0.0723628
0.0829374
0.10232
0.125546
0.150281
0.175141
0.199875
0.223955
0.247082
0.269716
0.292151
0.314181
0.335775
0.356752
0.377106
0.396605
0.415735
0.434391
0.452941
0.471
0.488485
0.504932
0.521511
0.538611
0.555703
0.571948
0.587839
0.603224
0.618502
0.633364
0.648142
0.662504
0.676852
0.690769
0.704722
0.718291
0.73186
0.745161
0.758379
0.77145
0.784384
0.797237
0.809951
0.822601
0.835138
0.847614
0.859994
0.872327
0.884549
0.896752
0.908804
0.920856
0.932726
0.944579
0.956269
0.967874
0.979388
0.990725
1.00205
1.01312
1.02421
1.03507
1.04591
1.05668
1.06728
1.07795
1.08824
1.09863
1.10839
1.11821
1.12711
1.13573
1.14284
1.14865
1.15191
1.01315
1.03086
1.00049
0.947938
0.883202
0.801691
0.718096
0.630282
0.549294
0.46849
0.391571
0.317958
0.25451
0.196693
0.143196
0.0951593
0.0531822
0.030037
0.0517213
0.0833443
0.121387
0.16731
0.20379
0.235004
0.262594
0.287096
0.309656
0.33146
0.352811
0.373891
0.394368
0.414553
0.433952
0.452862
0.471076
0.489135
0.506676
0.523968
0.540717
0.557009
0.572801
0.588119
0.60328
0.618095
0.632921
0.647073
0.660602
0.673797
0.687748
0.701872
0.715646
0.72885
0.741838
0.754608
0.767184
0.779665
0.791916
0.804116
0.816104
0.82803
0.8398
0.851486
0.863067
0.874575
0.88599
0.897372
0.908644
0.919924
0.931087
0.94228
0.953378
0.964495
0.975554
0.986594
0.997607
1.00856
1.01949
1.03035
1.04114
1.05191
1.06252
1.07321
1.08364
1.09422
1.10452
1.11509
1.12538
1.13587
1.14605
1.15634
1.16633
1.17636
1.18606
1.1957
1.20485
1.21381
1.22187
1.22931
1.23483
1.2386
1.03111
1.07332
1.07968
1.06055
1.02658
0.976979
0.920006
0.858866
0.796297
0.732707
0.666331
0.601125
0.542543
0.487194
0.436768
0.393854
0.360699
0.347299
0.352687
0.373907
0.402606
0.434768
0.465365
0.490642
0.511324
0.52859
0.543922
0.558646
0.573155
0.58758
0.601879
0.615858
0.629642
0.642927
0.656072
0.668849
0.68157
0.694041
0.706287
0.718387
0.730054
0.741769
0.753068
0.764658
0.775918
0.787309
0.797726
0.808358
0.818925
0.830617
0.841754
0.853081
0.863603
0.874511
0.884838
0.895569
0.905826
0.916394
0.926585
0.937005
0.947135
0.957442
0.967511
0.977738
0.987749
0.997922
1.0079
1.01803
1.028
1.03811
1.0481
1.05818
1.06819
1.07826
1.08824
1.09829
1.10818
1.1182
1.12794
1.13793
1.14749
1.1575
1.16701
1.17708
1.18654
1.1965
1.20582
1.21559
1.2248
1.23435
1.24342
1.25269
1.26154
1.27043
1.27887
1.28712
1.29469
1.30156
1.30696
1.31022
1.04151
1.09426
1.12242
1.12752
1.11631
1.09184
1.05714
1.01688
0.973219
0.926472
0.877131
0.826648
0.775238
0.725835
0.677732
0.635316
0.604101
0.589588
0.595576
0.614989
0.642417
0.672293
0.700424
0.722346
0.737238
0.747121
0.754155
0.761053
0.767947
0.775651
0.783253
0.791248
0.798805
0.806513
0.813874
0.821402
0.828843
0.836417
0.844037
0.851666
0.859422
0.867121
0.875041
0.882998
0.891268
0.899521
0.907469
0.915264
0.923299
0.932167
0.941316
0.950472
0.959332
0.968276
0.977072
0.986044
0.994924
1.00396
1.01292
1.02201
1.03102
1.04014
1.0492
1.05836
1.06745
1.07664
1.08578
1.09501
1.10422
1.11351
1.12279
1.13216
1.14152
1.15097
1.16036
1.16987
1.17923
1.18879
1.19811
1.20779
1.21715
1.22689
1.23613
1.24577
1.25493
1.26445
1.27354
1.28287
1.2919
1.30101
1.30994
1.31877
1.32751
1.33597
1.34434
1.3522
1.3598
1.3664
1.372
1.37509
1.04807
1.10478
1.14428
1.16597
1.17219
1.16596
1.14944
1.12616
1.09749
1.06591
1.02987
0.990826
0.94789
0.903055
0.859499
0.820412
0.79171
0.776792
0.780851
0.800292
0.830598
0.86295
0.892032
0.914103
0.927775
0.932002
0.930416
0.928043
0.926568
0.926332
0.927523
0.929338
0.931622
0.93417
0.937006
0.940104
0.943522
0.947323
0.951427
0.95603
0.960699
0.96592
0.971105
0.976955
0.982796
0.989293
0.995257
1.00147
1.00747
1.01457
1.02198
1.02983
1.03742
1.04521
1.05285
1.06069
1.06852
1.07651
1.08453
1.09268
1.10084
1.10912
1.11739
1.12577
1.13414
1.14261
1.15108
1.15963
1.16822
1.17686
1.18556
1.1943
1.20311
1.21194
1.2208
1.22972
1.23863
1.24774
1.25669
1.26585
1.27472
1.28387
1.29268
1.30177
1.31053
1.31953
1.32824
1.33709
1.34574
1.35441
1.36296
1.3714
1.37978
1.38791
1.39598
1.40361
1.41102
1.41758
1.42321
1.42637
1.05279
1.10985
1.15485
1.18649
1.20517
1.2124
1.21005
1.20006
1.18455
1.16339
1.13782
1.10559
1.06805
1.02754
0.98763
0.94928
0.917864
0.904374
0.910777
0.931638
0.962955
0.997921
1.02752
1.04966
1.0644
1.06884
1.06508
1.05609
1.04688
1.03982
1.03527
1.03263
1.03137
1.03087
1.03118
1.03193
1.03315
1.03493
1.03714
1.03981
1.04288
1.04641
1.05017
1.05443
1.05889
1.06387
1.06874
1.07359
1.07846
1.08397
1.09018
1.09685
1.10361
1.1104
1.11729
1.1242
1.13134
1.13847
1.14589
1.15326
1.16091
1.16847
1.17629
1.18399
1.19195
1.19979
1.20789
1.21587
1.22413
1.23226
1.24066
1.24895
1.25743
1.26584
1.27439
1.28301
1.29161
1.30028
1.30885
1.31755
1.32611
1.33484
1.34341
1.35212
1.3607
1.36934
1.37791
1.38643
1.39498
1.40335
1.41182
1.41999
1.4283
1.43622
1.44423
1.45172
1.45913
1.46565
1.47142
1.47465
1.05814
1.11283
1.15985
1.1968
1.22352
1.2402
1.2481
1.24836
1.24205
1.22961
1.20937
1.18071
1.14674
1.10957
1.06887
1.02482
0.994617
0.98784
0.996787
1.0191
1.05474
1.094
1.12567
1.1475
1.16217
1.1711
1.1721
1.16579
1.15441
1.1424
1.13253
1.12522
1.12004
1.11654
1.11419
1.11268
1.11165
1.11124
1.11124
1.11183
1.11284
1.11433
1.11623
1.11872
1.12147
1.12498
1.12849
1.13222
1.13575
1.13993
1.14464
1.15019
1.15583
1.1618
1.16776
1.17399
1.18024
1.18677
1.19333
1.20016
1.20701
1.21411
1.22122
1.22855
1.23588
1.24342
1.25094
1.25865
1.26636
1.27427
1.28216
1.29027
1.29833
1.3067
1.31489
1.32337
1.33157
1.34017
1.34838
1.35704
1.36526
1.37393
1.38215
1.39078
1.399
1.40756
1.4158
1.42426
1.43248
1.4408
1.44898
1.45712
1.46519
1.47309
1.48091
1.48843
1.49574
1.50237
1.50817
1.51159
1.06466
1.11569
1.16216
1.20156
1.23285
1.25578
1.27068
1.27792
1.2779
1.26977
1.25108
1.224
1.19354
1.15463
1.10564
1.06051
1.04008
1.04004
1.05192
1.07875
1.1178
1.15846
1.19198
1.21546
1.23051
1.24087
1.24559
1.2447
1.23775
1.22591
1.21235
1.1998
1.18943
1.18137
1.17556
1.17129
1.16825
1.16608
1.16452
1.16372
1.16325
1.16358
1.16433
1.1656
1.16736
1.16982
1.17261
1.17566
1.17859
1.1819
1.18576
1.19042
1.19545
1.2008
1.20634
1.21206
1.21794
1.224
1.23022
1.23664
1.2432
1.24995
1.2568
1.26382
1.27092
1.27817
1.2855
1.29299
1.30054
1.30828
1.31602
1.32398
1.33191
1.34001
1.34795
1.35613
1.3641
1.37237
1.3804
1.38873
1.39683
1.40519
1.41336
1.42173
1.42996
1.43829
1.44655
1.45481
1.46305
1.47118
1.47936
1.48731
1.49534
1.50305
1.51083
1.51813
1.5254
1.53185
1.53766
1.54097
1.07274
1.1194
1.16387
1.20343
1.23682
1.26322
1.28219
1.29354
1.296
1.28719
1.26838
1.24347
1.21004
1.16199
1.10808
1.07375
1.0639
1.06878
1.0867
1.12014
1.16112
1.19976
1.23233
1.25776
1.27555
1.28706
1.29505
1.29868
1.29768
1.29189
1.28166
1.2683
1.25441
1.24229
1.23263
1.22539
1.2201
1.21627
1.21355
1.21162
1.21044
1.20981
1.20977
1.21027
1.21127
1.21291
1.21497
1.21748
1.21984
1.22248
1.2255
1.22933
1.2337
1.23847
1.24353
1.2488
1.25433
1.26
1.26594
1.27197
1.27828
1.28462
1.29125
1.29788
1.30481
1.31171
1.31892
1.32611
1.33357
1.34105
1.34877
1.3565
1.36428
1.37215
1.37998
1.38797
1.39585
1.40393
1.41185
1.41999
1.42794
1.43609
1.44409
1.45224
1.46027
1.4684
1.47647
1.48456
1.49263
1.50065
1.50867
1.51656
1.52445
1.53211
1.53976
1.54703
1.55418
1.56059
1.56633
1.56968
1.08233
1.12466
1.16614
1.20459
1.23795
1.26559
1.28578
1.29781
1.29811
1.28636
1.2675
1.2395
1.19632
1.14005
1.09443
1.07656
1.07596
1.08615
1.11115
1.14873
1.18803
1.22361
1.25417
1.27985
1.30017
1.31567
1.32576
1.3329
1.33689
1.33678
1.33261
1.32464
1.31218
1.29798
1.28471
1.27359
1.26476
1.25823
1.25341
1.25009
1.24773
1.24613
1.24526
1.24476
1.24501
1.24573
1.24698
1.24885
1.25082
1.25303
1.25541
1.25857
1.26235
1.26668
1.27131
1.27631
1.28152
1.287
1.29265
1.29852
1.30452
1.31071
1.31703
1.32352
1.33015
1.33697
1.34391
1.35106
1.3583
1.36577
1.3732
1.38083
1.38836
1.39613
1.40375
1.41166
1.41937
1.42738
1.43517
1.44325
1.45111
1.45922
1.46715
1.47526
1.48323
1.49132
1.49932
1.50735
1.51533
1.52326
1.53118
1.53896
1.54673
1.55427
1.56178
1.56891
1.57588
1.58214
1.58766
1.59097
1.09347
1.13139
1.1693
1.2054
1.23734
1.26391
1.28273
1.29092
1.28562
1.27104
1.24836
1.21124
1.15627
1.10456
1.07887
1.07418
1.07959
1.09797
1.12975
1.16719
1.20241
1.23436
1.26275
1.28806
1.3099
1.32836
1.34297
1.35364
1.36061
1.36503
1.36607
1.36429
1.35857
1.34825
1.33506
1.32162
1.30963
1.29977
1.29233
1.28695
1.28326
1.28079
1.27919
1.27833
1.27797
1.27826
1.27905
1.28048
1.28229
1.28425
1.28634
1.28887
1.29212
1.296
1.30037
1.30504
1.31006
1.31526
1.32075
1.32634
1.33218
1.33812
1.34429
1.35057
1.35708
1.36373
1.37059
1.37761
1.38479
1.39207
1.39938
1.40681
1.4142
1.42177
1.42924
1.43692
1.44446
1.45224
1.45985
1.46768
1.47537
1.48324
1.49101
1.49888
1.50671
1.51457
1.52243
1.53026
1.53811
1.54585
1.55362
1.56121
1.56881
1.57613
1.58343
1.59029
1.59699
1.60291
1.60806
1.61115
1.10667
1.14014
1.17398
1.20645
1.23534
1.25832
1.27221
1.27196
1.26082
1.24272
1.2106
1.15861
1.10535
1.07458
1.06619
1.06933
1.08283
1.10956
1.1434
1.17654
1.20725
1.23587
1.26247
1.28729
1.31007
1.33053
1.34843
1.36303
1.37488
1.38247
1.38767
1.39027
1.39034
1.3871
1.37944
1.36788
1.35499
1.34268
1.33221
1.3239
1.31784
1.31347
1.31071
1.30882
1.30794
1.30754
1.30788
1.30872
1.31013
1.3119
1.31367
1.31574
1.31837
1.32176
1.32574
1.33011
1.33485
1.33982
1.34509
1.3505
1.35617
1.36194
1.36795
1.37407
1.38043
1.38694
1.39367
1.40057
1.40756
1.41468
1.42181
1.4291
1.43634
1.44379
1.45111
1.45867
1.46608
1.47371
1.48122
1.48891
1.4965
1.50423
1.5119
1.51965
1.52738
1.53513
1.54288
1.55059
1.55831
1.56593
1.57354
1.58098
1.58838
1.59549
1.6025
1.60904
1.61531
1.62076
1.62534
1.62815
1.12064
1.15017
1.17949
1.2075
1.23105
1.24773
1.25097
1.24282
1.22755
1.19867
1.15036
1.09785
1.06496
1.05471
1.05655
1.0667
1.08909
1.11968
1.1501
1.17865
1.20578
1.23179
1.25706
1.28139
1.30466
1.32644
1.34642
1.36418
1.37966
1.39205
1.40192
1.4077
1.41164
1.41312
1.41219
1.40724
1.39817
1.38662
1.37484
1.36409
1.35513
1.34826
1.34334
1.34014
1.33811
1.33716
1.33682
1.33729
1.3383
1.33986
1.34157
1.34343
1.34563
1.34847
1.35205
1.35607
1.36054
1.36525
1.37031
1.37552
1.38102
1.38662
1.39248
1.39847
1.4047
1.4111
1.4177
1.42444
1.43123
1.43818
1.44512
1.45225
1.4593
1.46656
1.47371
1.48106
1.48831
1.49574
1.50309
1.51058
1.51802
1.52555
1.53306
1.54062
1.54818
1.55573
1.56328
1.57079
1.57828
1.58566
1.59301
1.60015
1.60723
1.61395
1.62055
1.62654
1.63222
1.63697
1.64091
1.64335
1.13533
1.1604
1.1852
1.20706
1.22316
1.22752
1.22098
1.20653
1.17958
1.13401
1.08359
1.05112
1.04044
1.04178
1.05046
1.07022
1.09781
1.12523
1.15128
1.17606
1.20065
1.22494
1.24927
1.2732
1.29669
1.31921
1.34067
1.36048
1.37875
1.3946
1.40834
1.41902
1.42696
1.43168
1.43476
1.4356
1.43342
1.42709
1.41765
1.40673
1.39595
1.38636
1.37877
1.37308
1.3694
1.36708
1.36611
1.36588
1.36648
1.36766
1.36924
1.3709
1.37274
1.37498
1.37796
1.38154
1.38566
1.39009
1.39493
1.39995
1.40529
1.41075
1.41648
1.42233
1.42844
1.43473
1.44116
1.44771
1.45434
1.4611
1.46788
1.47483
1.48172
1.48881
1.49579
1.50298
1.51004
1.51729
1.52445
1.53175
1.539
1.54633
1.55367
1.56102
1.56841
1.57574
1.58313
1.59039
1.59769
1.6048
1.6119
1.61869
1.62541
1.63165
1.63768
1.64293
1.6478
1.65174
1.65467
1.65648
1.14991
1.17069
1.18901
1.20296
1.20637
1.19959
1.18475
1.15765
1.11286
1.06465
1.03404
1.02401
1.02563
1.03459
1.05347
1.07842
1.10332
1.12654
1.14901
1.17129
1.19407
1.21727
1.24084
1.26452
1.28794
1.31096
1.33318
1.35445
1.3745
1.39284
1.40959
1.42398
1.43621
1.44559
1.45199
1.45612
1.45889
1.45933
1.45612
1.44884
1.43913
1.42872
1.41888
1.41059
1.40418
1.39985
1.39709
1.39589
1.39557
1.39621
1.39748
1.39906
1.40073
1.40258
1.40502
1.4081
1.4119
1.41602
1.42062
1.42538
1.43051
1.43574
1.44128
1.44694
1.45292
1.459
1.46522
1.47156
1.47798
1.48454
1.49113
1.49786
1.50459
1.51145
1.51829
1.52525
1.53218
1.53921
1.54622
1.5533
1.56038
1.56748
1.57459
1.5817
1.58882
1.59589
1.60297
1.60992
1.6169
1.6236
1.63035
1.6366
1.64287
1.64836
1.65365
1.65795
1.66192
1.66469
1.66615
1.66725
1.1632
1.17959
1.18981
1.19006
1.18117
1.16477
1.1358
1.09007
1.04352
1.01543
1.00646
1.00874
1.0193
1.0387
1.06233
1.08498
1.10595
1.12585
1.14577
1.16641
1.18787
1.21028
1.23319
1.25648
1.27979
1.30291
1.3257
1.34775
1.36902
1.38908
1.40797
1.42521
1.44075
1.45417
1.465
1.47312
1.47866
1.48313
1.48514
1.48492
1.48037
1.47231
1.46259
1.45264
1.44382
1.43666
1.43155
1.4282
1.42658
1.42605
1.42666
1.42792
1.42953
1.43113
1.43314
1.4356
1.43893
1.44258
1.44683
1.45124
1.45612
1.46111
1.46649
1.47202
1.47782
1.48371
1.48974
1.4959
1.5021
1.50849
1.51483
1.52141
1.52788
1.5346
1.54116
1.54796
1.5546
1.56143
1.56816
1.57499
1.58183
1.58861
1.59555
1.60227
1.60926
1.61588
1.62285
1.62931
1.63608
1.64226
1.64859
1.65424
1.65975
1.66439
1.66858
1.67185
1.67438
1.67518
1.67488
1.67591
1.17416
1.18352
1.18076
1.1687
1.14889
1.11601
1.0676
1.02139
0.995894
0.988385
0.991494
1.00441
1.0257
1.04869
1.06991
1.08905
1.10689
1.12468
1.14304
1.16267
1.18327
1.20501
1.2273
1.25022
1.27325
1.29644
1.31935
1.34195
1.36398
1.38525
1.40564
1.42484
1.44267
1.45897
1.47325
1.48564
1.49498
1.50252
1.50806
1.51208
1.51341
1.51198
1.50633
1.49774
1.48824
1.47893
1.47084
1.46469
1.46042
1.45813
1.45726
1.45773
1.45899
1.46047
1.46217
1.46415
1.46683
1.4701
1.47387
1.47797
1.48247
1.48722
1.49233
1.49766
1.50324
1.5089
1.51475
1.52067
1.52671
1.53285
1.53903
1.54533
1.55162
1.55805
1.56444
1.57094
1.57742
1.58395
1.59051
1.59703
1.60365
1.61016
1.61679
1.62327
1.62986
1.63626
1.64269
1.64892
1.65501
1.66085
1.66631
1.67135
1.67563
1.67933
1.68214
1.684
1.68419
1.68325
1.68134
1.68172
1.17924
1.17773
1.16256
1.13858
1.09961
1.04662
0.999655
0.976438
0.970819
0.974909
0.990701
1.01439
1.03755
1.05791
1.0757
1.09197
1.10789
1.12441
1.142
1.16088
1.18093
1.202
1.22381
1.24621
1.26892
1.29187
1.31474
1.33756
1.35997
1.38195
1.40328
1.42374
1.44328
1.46157
1.4785
1.49387
1.50713
1.51831
1.52695
1.53435
1.53932
1.54235
1.54302
1.54043
1.53386
1.52482
1.51528
1.50651
1.49927
1.49407
1.49091
1.48951
1.48964
1.49064
1.49214
1.4936
1.49575
1.49824
1.50171
1.50525
1.50949
1.51379
1.51873
1.52371
1.52908
1.53448
1.54014
1.54585
1.55168
1.55761
1.56357
1.56963
1.57573
1.58185
1.5881
1.59424
1.60063
1.60674
1.61321
1.6193
1.62578
1.63185
1.63826
1.64432
1.65058
1.65659
1.66255
1.66835
1.67381
1.67903
1.68356
1.68758
1.69058
1.69311
1.69392
1.69357
1.69213
1.68912
1.68409
1.68182
1.17718
1.16201
1.13331
1.08646
1.02791
0.979371
0.95786
0.954179
0.959641
0.97825
1.00429
1.02804
1.04813
1.06515
1.08035
1.09493
1.10991
1.12578
1.14292
1.16125
1.18081
1.20127
1.22261
1.24445
1.26685
1.28942
1.31229
1.33503
1.35768
1.37998
1.40185
1.42315
1.44371
1.46347
1.4821
1.49967
1.51566
1.53007
1.54238
1.55239
1.56092
1.56767
1.57223
1.57403
1.57375
1.56955
1.56195
1.55275
1.54343
1.53514
1.52873
1.52438
1.52208
1.52152
1.5223
1.52349
1.52511
1.52695
1.52977
1.53294
1.53679
1.54082
1.54536
1.55008
1.55505
1.56026
1.56557
1.57115
1.57668
1.58248
1.58815
1.59406
1.59985
1.60583
1.61173
1.61772
1.62374
1.6297
1.63581
1.64171
1.64785
1.65366
1.65976
1.66544
1.67136
1.67681
1.68237
1.68735
1.69218
1.69624
1.69967
1.70213
1.704
1.70418
1.70313
1.70115
1.69755
1.6906
1.67946
1.67371
1.16552
1.12765
1.07073
1.00842
0.961318
0.940968
0.938767
0.947252
0.968342
0.995623
1.02038
1.0406
1.05718
1.07154
1.08511
1.09879
1.11331
1.12892
1.14579
1.16377
1.18287
1.20285
1.22369
1.24509
1.26708
1.28935
1.31193
1.33449
1.35712
1.37953
1.40168
1.42352
1.44469
1.46543
1.48522
1.50428
1.52218
1.53886
1.55402
1.56735
1.57857
1.58791
1.59624
1.60176
1.60503
1.60583
1.60412
1.59843
1.58986
1.58045
1.57137
1.56375
1.5581
1.55476
1.55328
1.55353
1.55464
1.55589
1.55766
1.56024
1.56361
1.56743
1.57156
1.57596
1.58057
1.58548
1.59054
1.59588
1.60124
1.60687
1.61237
1.61818
1.62373
1.62962
1.63519
1.64111
1.64666
1.65257
1.65814
1.66398
1.66957
1.67525
1.68077
1.68622
1.69149
1.69652
1.70126
1.70549
1.7092
1.71191
1.71397
1.71496
1.71467
1.71315
1.71046
1.70509
1.69633
1.68422
1.66883
1.66111
1.13
1.05717
0.987002
0.941348
0.92388
0.923717
0.937172
0.961617
0.989439
1.01431
1.03473
1.05113
1.06516
1.07806
1.091
1.10457
1.11901
1.13461
1.15119
1.16894
1.18749
1.20711
1.22725
1.2483
1.26959
1.29156
1.31357
1.336
1.35834
1.38076
1.40299
1.42497
1.44661
1.46778
1.48836
1.50831
1.52737
1.54558
1.56255
1.57822
1.59225
1.60421
1.61455
1.62341
1.6306
1.63479
1.6363
1.63618
1.63287
1.62596
1.61669
1.60708
1.59815
1.59115
1.58629
1.58381
1.58329
1.58397
1.58514
1.58669
1.5893
1.59273
1.59661
1.60069
1.60503
1.6096
1.61438
1.61942
1.62458
1.62996
1.63536
1.64093
1.64643
1.65209
1.65759
1.66326
1.66871
1.67433
1.67974
1.68525
1.6906
1.69593
1.70105
1.70608
1.71075
1.71515
1.71893
1.7221
1.72421
1.72564
1.72575
1.72472
1.72278
1.71879
1.71229
1.70122
1.6873
1.67188
1.65497
1.64734
1.04958
0.958844
0.913214
0.899829
0.904863
0.925748
0.956051
0.984964
1.01008
1.03035
1.04676
1.06046
1.07301
1.0854
1.09813
1.11172
1.12609
1.14165
1.15796
1.17547
1.19352
1.21273
1.23233
1.25293
1.27377
1.29533
1.31706
1.33915
1.36131
1.38349
1.4056
1.42752
1.44919
1.47051
1.4914
1.51171
1.53151
1.55036
1.56858
1.58545
1.60145
1.61567
1.62841
1.63919
1.6488
1.65687
1.6624
1.66501
1.66546
1.6639
1.65884
1.65065
1.64082
1.63112
1.6226
1.61637
1.61238
1.61069
1.61079
1.61167
1.61313
1.61537
1.6188
1.62253
1.62686
1.6311
1.63585
1.64047
1.64563
1.65063
1.65611
1.66136
1.66699
1.67239
1.67798
1.68341
1.68887
1.69422
1.69953
1.70474
1.70986
1.71483
1.71959
1.72404
1.72811
1.73158
1.73424
1.73592
1.73661
1.73624
1.73473
1.73188
1.72693
1.71775
1.7054
1.69004
1.67339
1.65748
1.64228
1.63631
0.926542
0.869683
0.864095
0.877386
0.908243
0.946063
0.978328
1.00439
1.02515
1.04179