/*--------------------------------*- C++ -*----------------------------------*\
  =========                 |
  \\      /  F ield         | OpenFOAM: The Open Source CFD Toolbox
   \\    /   O peration     | Website:  https://openfoam.org
    \\  /    A nd           | Version:  13
     \\/     M anipulation  |
\*---------------------------------------------------------------------------*/
FoamFile
{
    format      ascii;
    class       surfaceScalarField;
    location    "8";
    object      phi;
}
// * * * * * * * * * * * * * * * * * * * * * * * * * * * * * * * * * * * * * //

dimensions      [1 0 -1 0 0 0 0];

internalField   nonuniform List<scalar> 
10325
(
0.0840003
6.97174e-10
0.0840003
4.89915e-09
0.0840002
1.62813e-08
0.0840005
4.7115e-08
0.0839996
1.21804e-07
0.0839991
3.12645e-07
0.0839991
7.68776e-07
0.0839898
1.94044e-06
0.0839974
4.84287e-06
0.0839688
1.20521e-05
0.0839392
3.24623e-05
0.0838493
9.17676e-05
0.0835542
0.000300409
0.0823001
0.00119682
0.0763023
0.00588185
0.0701055
0.00620997
0.0640126
0.00610059
0.0576704
0.00633894
0.0510032
0.00666262
0.0438922
0.00710464
0.0362299
0.00765541
0.0280027
0.00822024
0.0192496
0.00874549
0.00995063
0.0092949
0.00994625
0.0840003
1.52749e-09
0.0840003
8.65349e-09
0.0840002
3.58349e-08
0.0840004
8.42357e-08
0.0839997
2.66953e-07
0.0839989
5.9362e-07
0.0839999
1.57718e-06
0.0839872
4.03621e-06
0.0840027
9.39002e-06
0.0839582
2.59275e-05
0.0839488
6.42793e-05
0.0838311
0.000191068
0.0835424
0.000609528
0.0822573
0.00241669
0.0762207
0.0118034
0.0699644
0.0124804
0.0639529
0.01212
0.0576746
0.0126137
0.0510378
0.0132948
0.043862
0.0142741
0.0361157
0.0153949
0.0278066
0.0165224
0.0189406
0.0176038
0.0095996
0.0186318
0.0195413
0.0840003
7.943e-10
0.0840001
2.218e-08
0.0840008
2.90814e-08
0.083999
2.13263e-07
0.0840034
2.24846e-07
0.0839907
1.35955e-06
0.0840202
1.47669e-06
0.0839492
8.06929e-06
0.0840817
1.10015e-05
0.0838431
4.4274e-05
0.0840882
9.15478e-05
0.0837165
0.000293414
0.0835929
0.000916641
0.0822863
0.00358864
0.0763945
0.0175933
0.070116
0.0187769
0.0641716
0.0180731
0.0579745
0.0188072
0.0513968
0.0198676
0.0442375
0.0214271
0.0364817
0.0231447
0.0281128
0.0248855
0.0191527
0.0265566
0.00967553
0.0281048
0.0292123
0.0840003
3.30925e-09
0.0840004
1.98752e-08
0.0840002
6.93324e-08
0.0840004
1.95557e-07
0.0839987
5.16688e-07
0.0840036
1.25904e-06
0.0839853
3.36837e-06
0.0840256
7.65287e-06
0.0839326
2.08682e-05
0.0840596
4.93599e-05
0.083853
0.000135015
0.0839121
0.000376372
0.0834751
0.00122194
0.0824243
0.00466388
0.07681
0.0230754
0.0705677
0.025038
0.0646907
0.0239597
0.0586023
0.0248923
0.0521228
0.0263435
0.0450473
0.0284962
0.037309
0.0308741
0.0289146
0.0332685
0.0198052
0.035656
0.0100796
0.0378261
0.0392872
0.0840003
4.36145e-09
0.0840005
2.36819e-08
0.0839997
8.98557e-08
0.0840014
2.30981e-07
0.0839966
6.67378e-07
0.0840085
1.54871e-06
0.083978
4.19749e-06
0.0840464
9.60368e-06
0.0838978
2.59358e-05
0.0841209
6.14689e-05
0.0837863
0.000167692
0.0839798
0.000464858
0.0834744
0.00149663
0.0825903
0.00561779
0.0776019
0.0279108
0.0713214
0.0313405
0.0655231
0.0297689
0.0595575
0.0308544
0.0532098
0.0326855
0.0462793
0.0354216
0.0386295
0.0385203
0.0302072
0.0416908
0.0209324
0.0449271
0.0107606
0.0479972
0.0500444
0.0840003
4.29698e-09
0.0840006
3.02557e-08
0.0839996
9.72734e-08
0.0840021
2.95355e-07
0.083996
7.25389e-07
0.0840102
1.96716e-06
0.0839776
4.58527e-06
0.0840461
1.22693e-05
0.0839052
2.85036e-05
0.0841134
7.60107e-05
0.0837958
0.000192261
0.083995
0.00054739
0.0835381
0.00172435
0.0828479
0.00637506
0.0790542
0.0315405
0.0726521
0.0377726
0.0668356
0.0355992
0.0609708
0.0367168
0.0547849
0.038868
0.048023
0.042179
0.0405089
0.0460284
0.0320758
0.0501152
0.0225725
0.0544208
0.0118421
0.0587182
0.0618801
0.0840003
5.50902e-09
0.0840004
2.93934e-08
0.0839999
1.18743e-07
0.0840011
2.87621e-07
0.0839975
8.81986e-07
0.0840067
1.98091e-06
0.0839822
5.44183e-06
0.0840392
1.27989e-05
0.0839125
3.29115e-05
0.0841158
8.22345e-05
0.0838109
0.000214595
0.0840351
0.000597951
0.0836528
0.00187071
0.0833212
0.00678495
0.0816214
0.0330642
0.0750465
0.0443829
0.0689214
0.0417406
0.0630434
0.0425933
0.0570094
0.0448995
0.0504265
0.0487578
0.0430664
0.0533812
0.034699
0.0584748
0.0249941
0.0641203
0.013535
0.0701787
0.0754134
0.0840003
5.96096e-09
0.0840002
3.03606e-08
0.0840008
1.21364e-07
0.0839993
2.95408e-07
0.0840027
8.97252e-07
0.0839952
1.97301e-06
0.0840103
5.74556e-06
0.0839794
1.23207e-05
0.0840315
3.56345e-05
0.0839398
8.02132e-05
0.0840567
0.00022522
0.0838983
0.00059784
0.0839994
0.00187475
0.0840634
0.00663846
0.0859018
0.0310738
0.0790343
0.0512915
0.0721745
0.0486198
0.0661415
0.0486285
0.060184
0.0508562
0.0537535
0.0551869
0.0465685
0.0605671
0.0382965
0.0667429
0.0285368
0.0738716
0.0163247
0.0823845
0.0917355
0.0840003
4.4462e-09
0.0840002
3.16039e-08
0.0840006
9.6363e-08
0.0839996
3.09479e-07
0.0840025
7.21939e-07
0.0839948
2.01411e-06
0.0840149
4.70641e-06
0.0839698
1.21697e-05
0.0840754
2.99133e-05
0.0838934
7.4931e-05
0.084196
0.000193073
0.0839628
0.000521542
0.0845086
0.00156397
0.0856251
0.00535559
0.0931621
0.0234038
0.0858949
0.0585904
0.0771277
0.0574068
0.0708999
0.0548636
0.064552
0.0572079
0.0582915
0.0614443
0.0512624
0.0675959
0.0434864
0.0745185
0.0341883
0.0831673
0.0212281
0.0953416
0.112961
0.0840003
3.57206e-09
0.0840004
2.78542e-08
0.084
8.39991e-08
0.0840012
2.72893e-07
0.0839988
6.26987e-07
0.0840042
1.81454e-06
0.0839949
3.90065e-06
0.0840116
1.12437e-05
0.0839888
2.38738e-05
0.0840417
6.77101e-05
0.0840005
0.000156198
0.0841831
0.000437732
0.0843984
0.00124355
0.0856282
0.00414652
0.0915664
0.0173843
0.0885711
0.0615435
0.0814455
0.0645213
0.0755055
0.0608089
0.0694735
0.063237
0.0636498
0.0672651
0.0574521
0.0737921
0.0507072
0.0812633
0.0420766
0.0917966
0.0296971
0.107718
0.14265
0.0840003
4.51724e-09
0.0840004
2.14207e-08
0.0840001
9.28692e-08
0.0840009
2.08164e-07
0.0839987
6.78973e-07
0.0840047
1.41382e-06
0.0839899
4.19798e-06
0.0840281
8.94657e-06
0.0839468
2.49605e-05
0.0841143
5.69989e-05
0.0838683
0.000151324
0.0842153
0.000388814
0.0840593
0.00112471
0.0846785
0.00366456
0.0873016
0.0146545
0.0870471
0.0616859
0.084456
0.0670831
0.0786957
0.0665607
0.0739701
0.0679561
0.0691544
0.0720761
0.0646839
0.0782578
0.05966
0.0862832
0.0550762
0.0963781
0.0543482
0.108445
0.113586
0.0834115
0.0840003
3.17945e-09
0.0840002
2.5733e-08
0.0840006
7.27263e-08
0.0839996
2.51051e-07
0.0840024
5.47069e-07
0.0839956
1.61717e-06
0.0840128
3.5108e-06
0.0839753
9.73554e-06
0.0840608
2.20932e-05
0.0838988
5.83093e-05
0.0841641
0.000142113
0.083844
0.000378418
0.0842127
0.00106393
0.0842197
0.00341878
0.0859112
0.013021
0.0872217
0.0602272
0.0840388
0.0702547
0.0802971
0.0702984
0.076984
0.0712644
0.0734825
0.0755723
0.0702526
0.0814839
0.0675477
0.0889852
0.0664483
0.0974723
0.0701378
0.10475
0.104648
0.0790616
0.0840003
3.77572e-09
0.0840004
2.19749e-08
0.0840001
7.9847e-08
0.0840008
2.14649e-07
0.083999
5.92676e-07
0.0840038
1.4289e-06
0.0839916
3.74807e-06
0.0840228
8.84255e-06
0.0839533
2.30693e-05
0.0840991
5.4913e-05
0.0838523
0.00014352
0.0841859
0.0003655
0.0838879
0.00103128
0.0842928
0.00323711
0.0852751
0.0118839
0.0892113
0.0561732
0.0860652
0.0734065
0.0827495
0.073618
0.0798729
0.0741381
0.0775286
0.0779099
0.075451
0.0835563
0.0745311
0.089898
0.0760331
0.0959709
0.0804529
0.100324
0.0993681
0.0857209
0.0840003
3.37512e-09
0.0840004
2.10006e-08
0.0840001
7.4351e-08
0.0840009
2.05244e-07
0.083999
5.48913e-07
0.0840038
1.39579e-06
0.0839934
3.41541e-06
0.0840188
8.86565e-06
0.0839658
2.08348e-05
0.0840736
5.53371e-05
0.0839037
0.000131739
0.0841549
0.000355067
0.0839562
0.000957283
0.0844204
0.002969
0.0856374
0.0105288
0.0945545
0.0471274
0.0906951
0.0772822
0.0863333
0.0779917
0.0834816
0.0769925
0.0816505
0.0797361
0.0807023
0.0844989
0.0809929
0.0896061
0.0829552
0.094004
0.086735
0.0965385
0.0950297
0.0910664
0.0840003
3.06088e-09
0.0840003
1.74784e-08
0.0840005
6.51223e-08
0.0840001
1.70262e-07
0.0840009
4.86271e-07
0.084
1.12458e-06
0.0840011
3.09184e-06
0.0840034
6.90748e-06
0.0839981
1.87772e-05
0.0840261
4.27556e-05
0.0840135
0.000114101
0.0841218
0.00027751
0.0842898
0.000761645
0.0850482
0.00221155
0.0880724
0.00745124
0.104277
0.0307621
0.0979882
0.0835826
0.0933459
0.082647
0.0886737
0.081675
0.0863405
0.0820683
0.0856125
0.0852238
0.0861804
0.0890339
0.0881597
0.0920265
0.0913771
0.0933162
0.0914874
0.0949068
0.0840003
2.41082e-09
0.0840003
1.51852e-08
0.0840005
5.13811e-08
0.084
1.4807e-07
0.0840014
3.81657e-07
0.0839983
9.6875e-07
0.084007
2.41695e-06
0.0839899
5.88064e-06
0.0840366
1.48676e-05
0.0839543
3.52748e-05
0.0841454
9.09233e-05
0.0839385
0.000220683
0.0844227
0.000590518
0.0846794
0.00165587
0.0869119
0.00536366
0.0965598
0.0210052
0.101223
0.0788624
0.0978804
0.0859804
0.0933018
0.0862477
0.0909101
0.0844617
0.090186
0.0859465
0.0906769
0.0885406
0.0923078
0.0903939
0.0949302
0.0906945
0.0886564
0.0977564
0.0840003
1.88905e-09
0.0840003
1.32475e-08
0.0840003
4.27051e-08
0.0840004
1.29631e-07
0.0840003
3.16248e-07
0.0840004
8.60973e-07
0.0840014
1.9534e-06
0.0839979
5.35728e-06
0.0840134
1.17787e-05
0.0839799
3.27009e-05
0.0840737
7.27467e-05
0.0839641
0.000199019
0.084233
0.000487941
0.0843142
0.00139502
0.0854744
0.00433757
0.090191
0.0161463
0.100471
0.0684609
0.0992629
0.0871724
0.0970725
0.0884293
0.0947008
0.0868324
0.0939586
0.0866843
0.0944591
0.0880385
0.0957911
0.0890621
0.0977873
0.0886987
0.0864635
0.0999806
0.0840003
1.70611e-09
0.0840003
1.11965e-08
0.0840004
3.71439e-08
0.0840002
1.08937e-07
0.0840007
2.7717e-07
0.0839999
7.18819e-07
0.0840015
1.76775e-06
0.0840008
4.40052e-06
0.0840002
1.09474e-05
0.0840117
2.66893e-05
0.0839992
6.76715e-05
0.0840542
0.000167026
0.0840843
0.000435519
0.084289
0.00118301
0.0849984
0.00361789
0.0883251
0.0127805
0.103384
0.0532516
0.102816
0.0877462
0.100588
0.0906626
0.0981422
0.0892843
0.0973189
0.0875111
0.0976609
0.0876944
0.0987275
0.0879955
0.100222
0.0872063
0.084856
0.101826
0.0840003
1.3887e-09
0.0840003
8.53872e-09
0.0840003
3.00782e-08
0.0840004
8.3591e-08
0.0840003
2.23143e-07
0.0840009
5.53168e-07
0.0839995
1.40109e-06
0.0840054
3.39027e-06
0.083994
8.51617e-06
0.0840345
2.0611e-05
0.0839723
5.15763e-05
0.0841599
0.000126807
0.0840455
0.000321748
0.084635
0.000848709
0.0855543
0.00244799
0.0903987
0.00804532
0.111902
0.0315286
0.109142
0.0904909
0.107052
0.0927724
0.103495
0.0928553
0.10136
0.0896508
0.100937
0.0881211
0.101496
0.0874352
0.102496
0.086205
0.0837607
0.103593
0.0840003
1.19352e-09
0.0840003
6.46261e-09
0.0840003
2.48885e-08
0.0840003
6.30244e-08
0.0840004
1.82744e-07
0.0840006
4.1568e-07
0.0840001
1.14337e-06
0.0840036
2.54344e-06
0.0839961
6.86316e-06
0.0840257
1.54486e-05
0.083977
4.08974e-05
0.0841312
9.50796e-05
0.0839927
0.000248747
0.0844887
0.000625031
0.0848748
0.0017661
0.0876049
0.00553623
0.0980675
0.020871
0.110981
0.0775012
0.109884
0.0938696
0.1076
0.0951457
0.105087
0.0921756
0.104073
0.0891364
0.104133
0.0873775
0.104666
0.0856666
0.0831128
0.10531
0.0840003
8.09912e-10
0.0840003
5.52494e-09
0.0840003
1.80737e-08
0.0840003
5.40345e-08
0.0840005
1.34084e-07
0.0840001
3.58447e-07
0.0840017
8.38879e-07
0.0839982
2.20251e-06
0.0840102
5.10701e-06
0.083987
1.33276e-05
0.0840586
3.10722e-05
0.0839427
8.09289e-05
0.0842279
0.000194556
0.0840059
0.00051251
0.0847464
0.00137675
0.0857618
0.00421093
0.0917435
0.0150016
0.110369
0.0587062
0.111682
0.0925513
0.110765
0.096063
0.108328
0.094617
0.106986
0.0904842
0.106608
0.0877493
0.106764
0.0855084
0.0828161
0.107054
0.0840003
6.72384e-10
0.0840003
4.08086e-09
0.0840004
1.4384e-08
0.0840003
3.98814e-08
0.0840005
1.06701e-07
0.0840001
2.61762e-07
0.0840014
6.70292e-07
0.0839997
1.59639e-06
0.084005
4.0702e-06
0.0840011
9.59465e-06
0.0840179
2.45807e-05
0.0840213
5.81495e-05
0.0840973
0.000148729
0.0841832
0.000366918
0.0846597
0.000978886
0.0859738
0.00279517
0.0917654
0.00922447
0.115602
0.0346885
0.116516
0.0916165
0.1156
0.0969897
0.113206
0.0970206
0.110494
0.0931984
0.10932
0.0889224
0.108964
0.0858507
0.0828905
0.108882
0.0840003
4.50863e-10
0.0840003
3.24196e-09
0.0840003
1.00868e-08
0.0840003
3.15198e-08
0.0840005
7.5087e-08
0.0840002
2.04681e-07
0.0840013
4.74327e-07
0.0839993
1.2313e-06
0.0840066
2.90318e-06
0.0839944
7.28665e-06
0.0840361
1.7654e-05
0.0839756
4.32329e-05
0.0841653
0.000107772
0.0840184
0.000264766
0.0846306
0.000687972
0.085188
0.00188509
0.0887753
0.00588074
0.101773
0.0215054
0.117786
0.075539
0.118127
0.0966412
0.116347
0.098797
0.113586
0.0959626
0.112248
0.0902508
0.111366
0.086723
0.0833654
0.110871
0.0840003
3.89348e-10
0.0840003
2.20225e-09
0.0840003
8.28167e-09
0.0840004
2.15645e-08
0.0840003
6.08199e-08
0.0840006
1.4435e-07
0.084
3.75922e-07
0.084002
8.95724e-07
0.083999
2.24024e-06
0.0840096
5.48072e-06
0.0839948
1.33178e-05
0.0840447
3.34251e-05
0.0839928
8.01275e-05
0.0841858
0.000205802
0.0841597
0.000510863
0.0848777
0.00139307
0.0864311
0.00411914
0.0936024
0.0143975
0.117019
0.0519683
0.119625
0.093997
0.120048
0.0983635
0.118317
0.0976862
0.11522
0.093338
0.113917
0.0880135
0.0841869
0.113085
0.0840003
2.58073e-10
0.0840003
1.6838e-09
0.0840003
5.60023e-09
0.0840003
1.64405e-08
0.0840004
4.15265e-08
0.0840003
1.06837e-07
0.0840009
2.60981e-07
0.084
6.39639e-07
0.0840033
1.58599e-06
0.0839994
3.7709e-06
0.0840153
9.52732e-06
0.084001
2.22863e-05
0.084071
5.71815e-05
0.084056
0.000134209
0.0843536
0.000348236
0.0846709
0.000877446
0.086492
0.00248338
0.0929229
0.00783965
0.116822
0.02802
0.12442
0.0863204
0.123668
0.0990953
0.121493
0.0998436
0.118319
0.0964989
0.11666
0.089648
0.0854375
0.115393
0.0840003
1.80184e-10
0.0840003
1.18647e-09
0.0840003
4.01068e-09
0.0840003
1.15648e-08
0.0840003
2.96082e-08
0.0840004
7.64317e-08
0.0840004
1.82084e-07
0.0840007
4.70452e-07
0.0840011
1.08078e-06
0.0840012
2.83702e-06
0.084008
6.41576e-06
0.083999
1.69517e-05
0.0840547
3.84894e-05
0.0840034
0.00010128
0.0842633
0.000237947
0.0842963
0.000627893
0.0853474
0.00165921
0.0878873
0.00506281
0.0980542
0.0179382
0.122078
0.0621071
0.124712
0.096424
0.125266
0.099256
0.123143
0.0985948
0.119773
0.0930195
0.0873014
0.117886
0.0840003
1.35276e-10
0.0840003
8.04487e-10
0.0840003
2.89301e-09
0.0840003
7.84257e-09
0.0840004
2.13034e-08
0.0840003
5.13937e-08
0.0840004
1.32898e-07
0.0840006
3.10782e-07
0.0840006
7.97806e-07
0.0840027
1.85415e-06
0.0840001
4.72654e-06
0.0840179
1.1083e-05
0.0839971
2.79536e-05
0.0841044
6.66622e-05
0.0840266
0.000167227
0.084472
0.000413563
0.0847575
0.00108408
0.0870001
0.00305964
0.0947599
0.00997717
0.121968
0.0347437
0.128314
0.0900271
0.128344
0.0992034
0.126234
0.100682
0.123079
0.0961508
0.0896455
0.120725
0.0840003
8.55352e-11
0.0840003
5.83787e-10
0.0840003
1.8882e-09
0.0840003
5.69152e-09
0.0840004
1.4017e-08
0.0840003
3.68659e-08
0.0840005
8.80393e-08
0.0840002
2.20684e-07
0.0840014
5.32958e-07
0.084
1.29743e-06
0.084006
3.20954e-06
0.084
7.5937e-06
0.0840277
1.92593e-05
0.0840115
4.4839e-05
0.0841266
0.000115622
0.0841618
0.000273881
0.0846587
0.000718722
0.0856433
0.00191098
0.0898498
0.00585554
0.104049
0.0204407
0.126972
0.066976
0.128863
0.0972825
0.13009
0.0994297
0.127308
0.0989182
0.092848
0.124076
0.0840003
6.21145e-11
0.0840003
3.77708e-10
0.0840003
1.34059e-09
0.0840003
3.69544e-09
0.0840003
9.86885e-09
0.0840004
2.43629e-08
0.0840003
6.09114e-08
0.0840006
1.47938e-07
0.0840004
3.63391e-07
0.0840015
8.81582e-07
0.0840014
2.14842e-06
0.0840043
5.26247e-06
0.0840118
1.26778e-05
0.0840153
3.13883e-05
0.0840794
7.5675e-05
0.0841075
0.000189005
0.0844394
0.000468579
0.0850133
0.00123114
0.0874419
0.00349972
0.0961864
0.0115861
0.12405
0.0389297
0.131503
0.0897816
0.131876
0.0990255
0.130308
0.100454
0.0958687
0.127271
0.0840003
3.93921e-11
0.0840003
2.61579e-10
0.0840003
8.79201e-10
0.0840003
2.54717e-09
0.0840003
6.48877e-09
0.0840004
1.66774e-08
0.0840003
3.99272e-08
0.0840005
1.01449e-07
0.0840005
2.36039e-07
0.0840008
6.06379e-07
0.0840018
1.39056e-06
0.0840016
3.58529e-06
0.0840122
8.22804e-06
0.0840032
2.11546e-05
0.0840768
4.89776e-05
0.0840369
0.0001253
0.0843806
0.0002999
0.0845921
0.000777701
0.0862344
0.00207977
0.0912732
0.00635783
0.108514
0.021691
0.130611
0.0675214
0.132171
0.0974221
0.133444
0.0991165
0.0976761
0.131557
0.0840003
2.79228e-11
0.0840003
1.6598e-10
0.0840003
6.02959e-10
0.0840003
1.62065e-09
0.0840003
4.42323e-09
0.0840003
1.06288e-08
0.0840003
2.73123e-08
0.0840004
6.42457e-08
0.0840003
1.62197e-07
0.084001
3.82689e-07
0.0840002
9.50356e-07
0.0840048
2.27719e-06
0.0839991
5.56673e-06
0.0840274
1.35149e-05
0.083997
3.27391e-05
0.0841436
8.06699e-05
0.0840516
0.000195666
0.0846335
0.000494252
0.0850502
0.00127592
0.088088
0.0036429
0.0975576
0.0119635
0.126096
0.0388413
0.134814
0.0886081
0.133453
0.100391
0.0972418
0.133755
0.0840003
1.75009e-11
0.0840003
1.10081e-10
0.0840003
3.80032e-10
0.0840003
1.07267e-09
0.0840003
2.8027e-09
0.0840003
6.97821e-09
0.0840004
1.73344e-08
0.0840003
4.19838e-08
0.0840005
1.0328e-07
0.0840005
2.47697e-07
0.0840009
6.111e-07
0.0840019
1.45601e-06
0.0840021
3.59983e-06
0.0840129
8.57875e-06
0.0840054
2.12138e-05
0.0840821
5.07341e-05
0.0840462
0.000125934
0.0844143
0.000307434
0.0846505
0.00078295
0.0864315
0.0020999
0.0918211
0.0063632
0.109313
0.0213317
0.133246
0.0644738
0.13617
0.0972909
0.098386
0.134796
0.0840003
1.11573e-11
0.0840003
7.04294e-11
0.0840003
2.41151e-10
0.0840003
6.86969e-10
0.0840003
1.77127e-09
0.0840003
4.45295e-09
0.0840003
1.10022e-08
0.0840003
2.65109e-08
0.0840004
6.57412e-08
0.0840004
1.55224e-07
0.0840008
3.87897e-07
0.0840011
9.06819e-07
0.0840022
2.27819e-06
0.0840073
5.31307e-06
0.0840063
1.33247e-05
0.0840502
3.12917e-05
0.0840341
7.81075e-05
0.0842803
0.000187379
0.0843754
0.000471437
0.0855222
0.00120834
0.0881652
0.00341556
0.0985966
0.0110198
0.127714
0.0350697
0.138563
0.0861995
0.0974852
0.138937
0.0840003
6.44439e-12
0.0840003
4.49364e-11
0.0840003
1.44594e-10
0.0840003
4.37572e-10
0.0840003
1.06559e-09
0.0840003
2.8334e-09
0.0840003
6.57261e-09
0.0840003
1.69142e-08
0.0840004
3.91129e-08
0.0840003
9.86568e-08
0.0840008
2.31569e-07
0.0840003
5.72329e-07
0.0840032
1.37046e-06
0.0840008
3.30864e-06
0.084016
8.11549e-06
0.0840065
1.92175e-05
0.084076
4.80748e-05
0.0840755
0.000113096
0.0843679
0.000288005
0.0846935
0.0007066
0.0863457
0.00192135
0.0914335
0.00573556
0.107156
0.0192626
0.135613
0.0573021
0.0912109
0.141189
0.0840003
4.23678e-12
0.0840003
2.4669e-11
0.0840003
9.12284e-11
0.0840003
2.40443e-10
0.0840003
6.64957e-10
0.0840003
1.57376e-09
0.0840003
4.01399e-09
0.0840004
9.47543e-09
0.0840003
2.321e-08
0.0840005
5.59514e-08
0.0840004
1.32685e-07
0.0840009
3.27832e-07
0.084001
7.56737e-07
0.084003
1.91359e-06
0.0840061
4.3193e-06
0.0840115
1.10867e-05
0.0840432
2.48488e-05
0.0840591
6.40161e-05
0.0842627
0.000145943
0.0844671
0.000376373
0.0855687
0.000934335
0.0884426
0.00264548
0.0992183
0.00845064
0.128905
0.0271394
0.0750698
0.144153
0.0840003
2.27573e-12
0.0840003
1.41807e-11
0.0840003
4.9361e-11
0.0840003
1.37903e-10
0.0840003
3.59496e-10
0.0840003
8.85554e-10
0.0840003
2.19127e-09
0.0840003
5.18155e-09
0.0840004
1.27864e-08
0.0840004
2.96601e-08
0.0840004
7.35581e-08
0.0840006
1.68937e-07
0.0840007
4.19368e-07
0.0840024
9.63696e-07
0.0840011
2.37083e-06
0.0840151
5.50646e-06
0.0840021
1.33615e-05
0.0840899
3.15095e-05
0.0840296
7.59875e-05
0.0844298
0.000183821
0.0845563
0.0004582
0.0862423
0.00122142
0.0905147
0.00370245
0.104414
0.0128762
0.041172
0.136569
0.0840003
1.12832e-12
0.0840003
7.73788e-12
0.0840003
2.48077e-11
0.0840003
7.51871e-11
0.0840003
1.81655e-10
0.0840003
4.71996e-10
0.0840003
1.11115e-09
0.0840003
2.68046e-09
0.0840004
6.48489e-09
0.0840003
1.48126e-08
0.0840005
3.73206e-08
0.0840003
8.10507e-08
0.0840009
2.11476e-07
0.0840007
4.42453e-07
0.0840024
1.19041e-06
0.0840048
2.41552e-06
0.0840067
6.60221e-06
0.0840343
1.33364e-05
0.0840344
3.62542e-05
0.0841895
7.6441e-05
0.084321
0.000201471
0.0850646
0.000491084
0.0870903
0.00141487
0.0949763
0.00462859
0.0173306
0.117409
0.0840003
5.43416e-13
0.0840003
4.03925e-12
0.0840003
1.25728e-11
0.0840003
3.90922e-11
0.0840003
9.09476e-11
0.0840003
2.5141e-10
0.0840003
5.23032e-10
0.0840003
1.49406e-09
0.0840003
2.83101e-09
0.0840003
8.56848e-09
0.0840004
1.53035e-08
0.0840003
4.79043e-08
0.0840008
8.39733e-08
0.0839996
2.60369e-07
0.0840037
4.69721e-07
0.0839953
1.37927e-06
0.0840216
2.6537e-06
0.0839725
7.16747e-06
0.0841038
1.50429e-05
0.0839137
3.73586e-05
0.084306
8.54693e-05
0.0841436
0.000215891
0.0850808
0.000581711
0.0873138
0.00177184
0.00687478
0.0962286
0.0840003
3.20396e-13
0.0840003
2.06083e-12
0.0840003
6.79079e-12
0.0840003
1.99375e-11
0.0840003
4.85082e-11
0.0840003
1.22714e-10
0.0840003
2.93144e-10
0.0840003
6.76637e-10
0.0840003
1.70361e-09
0.0840003
3.62579e-09
0.0840003
9.67985e-09
0.0840005
1.91878e-08
0.0839999
5.45487e-08
0.0840015
1.02361e-07
0.0839979
3.05016e-07
0.0840073
5.35658e-07
0.0839871
1.71444e-06
0.0840355
2.8652e-06
0.0839383
9.22886e-06
0.0841154
1.69475e-05
0.08386
4.83277e-05
0.0841638
0.000111841
0.0839869
0.000321359
0.0844445
0.000987331
0.00390985
0.0856553
0.0840003
2.95609e-13
0.0840003
7.29142e-13
0.0840003
5.28042e-12
0.0840003
6.98468e-12
0.0840003
3.73301e-11
0.0840003
4.397e-11
0.0840003
2.22672e-10
0.0840003
2.42517e-10
0.0840003
1.2491e-09
0.0840004
1.37096e-09
0.0840003
6.7697e-09
0.0840005
8.55379e-09
0.084
3.50318e-08
0.0840011
5.43725e-08
0.0839988
1.81974e-07
0.0840025
3.58224e-07
0.0839954
8.68935e-07
0.0840021
2.41762e-06
0.0839836
4.25555e-06
0.0839998
1.41734e-05
0.0839281
2.63606e-05
0.083951
8.14989e-05
0.0837837
0.000218656
0.0836547
0.000740083
0.00317253
0.082641
0.0840003
1.17982e-13
0.0840003
7.70969e-13
0.0840003
2.59707e-12
0.0840003
7.23755e-12
0.0840003
1.86619e-11
0.0840003
4.50119e-11
0.0840003
1.09326e-10
0.0840003
2.56695e-10
0.0840003
6.08113e-10
0.0840003
1.43311e-09
0.0840004
3.32861e-09
0.0840002
7.95115e-09
0.0840007
1.83379e-08
0.0839992
4.42907e-08
0.0840029
1.01776e-07
0.0839939
2.5256e-07
0.0840142
5.7708e-07
0.0839663
1.46294e-06
0.0840579
3.38072e-06
0.0838747
8.74322e-06
0.0840932
2.12514e-05
0.0837403
5.86967e-05
0.0838438
0.000174267
0.0834832
0.000604395
0.00276265
0.0822328
0.0840003
1.92947e-14
0.0840003
8.61011e-13
0.0840003
1.17834e-12
0.0840003
8.2037e-12
0.0840003
8.36294e-12
0.0840003
5.36208e-11
0.0840003
3.58106e-11
0.0840003
3.32384e-10
0.0840003
1.14244e-10
0.0840003
1.9535e-09
0.0840004
2.03601e-10
0.0840002
1.08606e-08
0.0840007
5.85416e-10
0.0839992
5.85105e-08
0.0840027
1.20734e-08
0.083994
3.22792e-07
0.0840136
1.82803e-07
0.0839665
1.59938e-06
0.0840553
1.96653e-06
0.083875
7.58637e-06
0.0840903
1.60978e-05
0.0837398
4.5096e-05
0.0838508
0.000140659
0.0834861
0.000495269
0.00235447
0.0824012
0.0840003
1.05232e-13
0.0840003
3.02383e-13
0.0840003
2.08439e-12
0.0840003
2.86181e-12
0.0840003
1.47629e-11
0.0840003
1.74994e-11
0.0840003
8.29439e-11
0.0840003
1.09357e-10
0.0840003
4.22225e-10
0.0840003
6.97402e-10
0.0840003
2.05779e-09
0.0840005
4.27368e-09
0.0839999
9.38758e-09
0.0840013
2.68391e-08
0.0839976
4.63065e-08
0.0840061
1.64358e-07
0.0839854
2.4396e-07
0.0840306
1.03848e-06
0.0839287
1.30267e-06
0.0840952
6.26982e-06
0.0838082
9.97811e-06
0.0840495
3.83608e-05
0.0836802
0.000106347
0.0835799
0.000405131
0.00193525
0.0826677
0.0840003
1.19076e-13
0.0840003
2.14234e-13
0.0840003
1.9456e-12
0.0840003
1.85106e-12
0.0840003
1.24476e-11
0.0840003
1.01478e-11
0.0840003
7.21055e-11
0.0840003
3.93876e-11
0.0840003
4.1711e-10
0.0840003
7.27949e-11
0.0840003
2.18594e-09
0.0840004
2.54004e-11
0.0840001
1.12548e-08
0.0840008
2.97392e-09
0.0839983
5.26748e-08
0.0840043
5.22814e-08
0.0839872
2.413e-07
0.0840262
5.49199e-07
0.0839331
1.27856e-06
0.0840916
4.00055e-06
0.0838173
8.25997e-06
0.0840575
2.77855e-05
0.0837216
8.33185e-05
0.0836178
0.000320101
0.00153764
0.0829208
0.0840003
4.37126e-14
0.0840003
2.12814e-13
0.0840003
8.1419e-13
0.0840003
1.95131e-12
0.0840003
5.7665e-12
0.0840003
9.87657e-12
0.0840003
3.33147e-11
0.0840003
4.35557e-11
0.0840003
1.93751e-10
0.0840003
1.06312e-10
0.0840004
1.2037e-09
0.0840002
-2.40555e-11
0.0840005
6.49517e-09
0.0839999
-3.11253e-09
0.0840005
4.35114e-08
0.0839994
-3.02689e-08
0.0839973
2.44483e-07
0.0840011
9.27353e-09
0.0839803
1.32278e-06
0.0840033
1.52443e-06
0.0839477
7.69432e-06
0.083936
1.79515e-05
0.0838518
6.74487e-05
0.0836085
0.000247106
0.00117944
0.0831169
0.0840003
-5.8504e-14
0.0840003
5.27554e-13
0.0840003
-6.25416e-13
0.0840003
5.04506e-12
0.0840003
-4.28257e-12
0.0840003
2.77356e-11
0.0840003
-2.70633e-11
0.0840003
1.3491e-10
0.0840003
-1.68574e-10
0.0840003
5.55004e-10
0.0840004
-5.86703e-10
0.0840002
1.66173e-09
0.0840006
1.24711e-10
0.0839995
-1.02702e-09
0.0840017
2.75203e-08
0.0839968
-6.14749e-08
0.0840045
3.3303e-07
0.0839876
-5.70815e-07
0.08401
2.49159e-06
0.083958
-1.88154e-06
0.0840146
1.14831e-05
0.083884
8.78981e-06
0.0839251
6.07151e-05
0.083573
0.000185506
0.000877676
0.0832115
0.0840003
8.99779e-15
0.0840003
1.70827e-13
0.0840003
2.59118e-13
0.0840003
1.57966e-12
0.0840003
1.469e-12
0.0840003
8.22936e-12
0.0840003
2.8629e-12
0.0840003
4.15538e-11
0.0840003
-1.80976e-11
0.0840003
2.8204e-10
0.0840003
-3.81117e-10
0.0840004
1.50116e-09
0.0840001
-2.50131e-09
0.0840005
9.18763e-09
0.0839998
-1.65824e-08
0.0839994
6.47419e-08
0.084001
-8.65463e-08
0.0839897
3.50284e-07
0.0840101
-1.1176e-07
0.083962
2.0925e-06
0.0840066
2.02586e-06
0.0839366
1.35653e-05
0.0839285
3.98693e-05
0.0835233
0.000150847
0.000628651
0.0832365
0.0840003
5.6949e-14
0.0840003
-1.42836e-13
0.0840003
1.058e-12
0.0840003
-1.50881e-12
0.0840003
6.76039e-12
0.0840003
-8.07206e-12
0.0840003
3.23596e-11
0.0840003
-5.37726e-11
0.0840003
1.42474e-10
0.0840004
-1.89843e-10
0.0840003
1.73061e-10
0.0840005
2.57592e-10
0.084
-2.48005e-09
0.0840011
8.88147e-09
0.0839985
-2.73185e-08
0.0840037
8.56929e-08
0.0839922
-1.86701e-07
0.0840114
7.1075e-07
0.0839715
-1.10608e-06
0.0840323
3.95308e-06
0.0839176
-1.56316e-06
0.0840365
1.58485e-05
0.0838842
2.09152e-05
0.0835493
0.000107508
0.000403455
0.0832697
0.0840003
-4.79798e-14
0.0840003
2.37896e-13
0.0840003
-6.29203e-13
0.0840003
2.24693e-12
0.0840003
-3.99181e-12
0.0840003
1.21386e-11
0.0840003
-2.76413e-11
0.0840003
6.71848e-11
0.0840003
-1.80271e-10
0.0840003
3.34216e-10
0.0840003
-8.59685e-10
0.0840003
1.4568e-09
0.0840002
-3.43642e-09
0.0840006
5.28572e-09
0.0839988
-1.10439e-08
0.0840037
1.61851e-08
0.0839892
-2.96456e-08
0.0840241
3.66942e-08
0.0839418
2.05163e-07
0.084097
7.96026e-08
0.0838434
2.48521e-06
0.0841238
2.84264e-06
0.0838499
1.83926e-05
0.083592
4.95228e-05
0.000197264
0.0832837
0.0840003
0.0840003
0.0840003
0.0840003
0.0840003
0.0840003
0.0840003
0.0840003
0.0840003
0.0840003
0.0840003
0.0840004
0.084
0.0840012
0.0839978
0.0840062
0.0839858
0.084033
0.0839324
0.0841135
0.0838292
0.0841431
0.0838506
0.0835796
0.0832817
0.0399742
0.0434296
0.0165161
0.0234013
-0.00603416
0.0224932
-0.0163887
0.0103294
-0.023077
0.00664417
-0.0268055
0.00367722
-0.0280614
0.00120371
-0.029368
0.00126486
-0.0311171
0.00171476
-0.0327428
0.00159436
-0.0339849
0.00121579
-0.0349935
0.000986625
-0.0359047
0.000892116
-0.0365923
0.000671405
-0.0370412
0.000430117
-0.0376028
0.000526009
-0.0381103
0.000466303
-0.03842
0.000267307
-0.0384917
1.99614e-06
-0.0383308
-0.000253421
-0.0378294
-0.000607792
-0.0369523
-0.000994663
-0.0357066
-0.00135555
-0.0341869
-0.00162516
-0.0324723
-0.00180916
-0.0306081
-0.00194202
-0.0286511
-0.00202886
-0.0266324
-0.00207516
-0.0245805
-0.00209923
-0.0225059
-0.00211809
-0.0203831
-0.00215077
-0.0182201
-0.00218196
-0.0160108
-0.00222694
-0.0137319
-0.00229929
-0.0114318
-0.00232309
-0.00913159
-0.00232031
-0.00684031
-0.00230808
-0.00454694
-0.00230954
-0.00224954
-0.00231698
0.0001036
-0.00238946
0.00244406
-0.00235254
0.00467392
-0.0022555
0.0068093
-0.00216486
0.00887019
-0.00209211
0.0108607
-0.00202328
0.0127673
-0.00194165
0.0146076
-0.00187757
0.0164131
-0.001846
0.0181849
-0.00181694
0.0198894
-0.00175246
0.0215251
-0.00168593
0.023096
-0.00162252
0.0246057
-0.00156379
0.0260523
-0.00150434
0.0274403
-0.00144673
0.0287695
-0.00138936
0.0300412
-0.00133321
0.0312604
-0.00127692
0.0324264
-0.00122294
0.0335403
-0.00116763
0.0346087
-0.00111514
0.0356265
-0.00106168
0.0366009
-0.00101048
0.0375291
-0.000959116
0.0384181
-0.000909749
0.0392626
-0.000860956
0.0400704
-0.000813588
0.0408407
-0.00076775
0.0415726
-0.000722969
0.042273
-0.000679841
0.0429371
-0.000638109
0.0435691
-0.0005976
0.0441697
-0.0005587
0.0447367
-0.000520855
0.0452739
-0.00048442
0.0457792
-0.000449143
0.0462539
-0.000415077
0.0466989
-0.00038227
0.0471137
-0.000350683
0.0475
-0.000320423
0.0478587
-0.000291386
0.0481886
-0.00026369
0.048495
-0.000237118
0.0487723
-0.000211849
0.0490284
-0.000187436
0.0492575
-0.000164538
0.0494651
-0.000142163
0.0496497
-0.00012098
0.0498109
-0.000100297
0.0499533
-8.05192e-05
0.0500707
-6.0225e-05
0.050171
-4.1567e-05
0.0502482
-2.23341e-05
0.0503057
-2.1433e-06
0.0503426
1.64423e-05
0.0503569
3.74788e-05
0.0503461
6.23129e-05
0.0503027
9.28541e-05
0.0502202
0.000132161
0.000182808
0.0582092
0.0642673
0.0415648
0.0399931
0.0329606
0.0310636
0.0204806
0.0227873
0.0111222
0.0159779
0.0028516
0.0119028
-0.00519327
0.00920697
-0.0113469
0.00739463
-0.0154495
0.00580608
-0.0181583
0.00429139
-0.0198824
0.00292905
-0.0211439
0.00224397
-0.0225363
0.00228455
-0.023771
0.00190979
-0.0247278
0.00138959
-0.0252767
0.00106863
-0.0256382
0.000809763
-0.0257948
0.000411753
-0.0256274
-0.000213247
-0.0250782
-0.000880188
-0.0241136
-0.00166696
-0.0227428
-0.00248403
-0.0210253
-0.00317719
-0.0191154
-0.00364653
-0.0170775
-0.00394208
-0.014956
-0.00415218
-0.0127938
-0.00426732
-0.0106203
-0.00431105
-0.00843843
-0.00433606
-0.00623308
-0.00437517
-0.00398723
-0.00443123
-0.00171454
-0.00447796
0.000634753
-0.00459655
0.00290819
-0.00459239
0.00514798
-0.00458073
0.00736145
-0.00454708
0.00957467
-0.00452923
0.011752
-0.00449473
0.0138946
-0.00446792
0.015929
-0.00443822
0.0179259
-0.00436421
0.0198992
-0.0042474
0.021847
-0.00413096
0.0237355
-0.00400497
0.0255666
-0.00388324
0.0273336
-0.00374186