/*--------------------------------*- C++ -*----------------------------------*\
  =========                 |
  \\      /  F ield         | OpenFOAM: The Open Source CFD Toolbox
   \\    /   O peration     | Website:  https://openfoam.org
    \\  /    A nd           | Version:  13
     \\/     M anipulation  |
\*---------------------------------------------------------------------------*/
FoamFile
{
    format      ascii;
    class       volScalarField;
    location    "8";
    object      T;
}
// * * * * * * * * * * * * * * * * * * * * * * * * * * * * * * * * * * * * * //

dimensions      [0 0 0 1 0 0 0];

internalField   nonuniform List<scalar> 
5250
(
1.00001
1.00002
1.00006
1.00012
1.00036
1.00078
1.00213
1.00486
1.01275
1.03079
1.08033
1.21152
1.56832
2.3209
2.70625
2.74445
2.73829
2.73953
2.75101
2.76679
2.77956
2.78777
2.79494
2.79991
2.80205
1.00001
1.00002
1.00006
1.00012
1.00035
1.00077
1.0021
1.00481
1.01258
1.03046
1.07931
1.20897
1.56156
2.31106
2.70276
2.74411
2.73775
2.73876
2.75019
2.76585
2.77852
2.78667
2.79379
2.79866
2.80066
1.00001
1.00002
1.00005
1.00013
1.00032
1.0008
1.00193
1.00497
1.01175
1.03055
1.07626
1.20438
1.54664
2.28895
2.69456
2.74299
2.73607
2.73643
2.74771
2.76289
2.77571
2.78322
2.79025
2.79444
2.79665
1.00001
1.00002
1.00005
1.00013
1.0003
1.00079
1.00187
1.00468
1.0116
1.02885
1.07388
1.19527
1.52528
2.253
2.68154
2.74139
2.73331
2.73254
2.74339
2.75814
2.77029
2.77868
2.78527
2.78999
2.79129
1.00001
1.00002
1.00005
1.00012
1.0003
1.00071
1.00185
1.00426
1.01134
1.02673
1.07048
1.18352
1.49591
2.20235
2.66295
2.73924
2.72948
2.72712
2.73731
2.75217
2.7634
2.77099
2.77753
2.78109
2.78292
1.00001
1.00002
1.00005
1.0001
1.00029
1.00064
1.00177
1.00387
1.01069
1.02462
1.06561
1.16941
1.45875
2.13427
2.63766
2.73617
2.72428
2.7196
2.72915
2.74314
2.75427
2.76021
2.76675
2.77055
2.77129
1
1.00001
1.00004
1.0001
1.00025
1.00061
1.00155
1.00364
1.00958
1.0226
1.0593
1.15317
1.41424
2.0461
2.60418
2.73127
2.71681
2.70991
2.719
2.73225
2.74336
2.74861
2.75266
2.7553
2.75483
1
1.00001
1.00003
1.0001
1.0002
1.0006
1.00123
1.00359
1.00783
1.02123
1.0511
1.13633
1.36313
1.93779
2.56072
2.72183
2.70525
2.69608
2.70523
2.71699
2.72768
2.73186
2.73403
2.73323
2.72898
1
1.00001
1.00003
1.00008
1.0002
1.00049
1.00116
1.00301
1.007
1.01836
1.04432
1.11711
1.30985
1.81036
2.50519
2.70494
2.6877
2.67824
2.68735
2.69867
2.70752
2.71082
2.70967
2.70334
2.68713
1
1.00001
1.00003
1.00006
1.00019
1.00038
1.00112
1.00239
1.00659
1.01509
1.03974
1.09958
1.26704
1.70278
2.44478
2.6858
2.66912
2.65996
2.66618
2.67669
2.68317
2.68347
2.6757
2.65438
2.59787
1
1.00001
1.00002
1.00006
1.00015
1.00037
1.00093
1.00218
1.0057
1.0133
1.03479
1.08683
1.23291
1.61855
2.3662
2.65706
2.65549
2.64788
2.64723
2.6533
2.65671
2.65224
2.63345
2.58744
2.48179
1
1.00001
1.00002
1.00005
1.00012
1.00034
1.00074
1.00208
1.0045
1.01251
1.02871
1.07691
1.19921
1.5362
2.25387
2.61375
2.64655
2.63711
2.63156
2.63121
2.62867
2.61732
2.58788
2.52486
2.41517
1
1.00001
1.00002
1.00004
1.00011
1.00027
1.0007
1.0016
1.00429
1.00976
1.026
1.06335
1.1698
1.45226
2.11344
2.55654
2.63722
2.62748
2.61656
2.61151
2.60281
2.58345
2.54846
2.48583
2.38978
1
1.00001
1.00002
1.00004
1.0001
1.00021
1.00061
1.00128
1.00367
1.00795
1.02173
1.05191
1.13887
1.3685
1.9432
2.48159
2.61985
2.61186
2.59927
2.58853
2.57736
2.55471
2.51556
2.45861
2.38031
1
1
1.00001
1.00003
1.00007
1.0002
1.00042
1.00117
1.00263
1.00693
1.0164
1.0422
1.10701
1.28472
1.74085
2.38571
2.58763
2.58676
2.57703
2.56399
2.54984
2.52914
2.49236
2.43745
2.37012
1
1
1.00001
1.00003
1.00006
1.00016
1.00034
1.00095
1.00205
1.00573
1.01268
1.03413
1.08342
1.22333
1.58633
2.27688
2.54755
2.56064
2.5512
2.53929
2.52358
2.50148
2.47042
2.42218
2.36035
1
1
1.00001
1.00002
1.00005
1.00011
1.00031
1.00069
1.00179
1.00429
1.01065
1.02654
1.06705
1.17611
1.46783
2.1192
2.48483
2.54061
2.5318
2.51885
2.50242
2.47836
2.44799
2.40668
2.35287
1
1
1.00001
1.00002
1.00003
1.0001
1.00021
1.0006
1.0013
1.00351
1.00812
1.02101
1.05158
1.13559
1.35958
1.91359
2.39526
2.51609
2.51276
2.49963
2.48184
2.45881
2.4291
2.39121
2.34498
1
1
1
1.00001
1.00003
1.00007
1.00017
1.00043
1.00104
1.00251
1.00636
1.01513
1.03875
1.09738
1.25716
1.66813
2.2748
2.47572
2.48664
2.47637
2.45928
2.43741
2.41057
2.37612
2.3353
1
1
1
1.00001
1.00002
1.00006
1.00013
1.00033
1.00078
1.0019
1.00478
1.01137
1.02911
1.07211
1.19011
1.49865
2.13186
2.42465
2.46157
2.45355
2.43709
2.41599
2.39203
2.36146
2.32545
1
1
1
1.00001
1.00002
1.00004
1.0001
1.00024
1.00057
1.0015
1.00336
1.00907
1.02073
1.05488
1.13852
1.37025
1.92088
2.33578
2.43309
2.4314
2.41812
2.39625
2.37369
2.34657
2.31436
1
1
1
1.00001
1.00001
1.00003
1.00006
1.00019
1.00039
1.00111
1.0024
1.0065
1.01491
1.0388
1.09648
1.25456
1.65912
2.20974
2.39024
2.40549
2.39659
2.37811
2.35526
2.33112
2.30329
1
1
1
1
1.00001
1.00002
1.00005
1.00013
1.00029
1.00079
1.0017
1.00475
1.01034
1.02799
1.06678
1.17731
1.46117
2.04587
2.331
2.37859
2.37335
2.35836
2.33751
2.31473
2.29005
1
1
1
1
1.00001
1.00001
1.00004
1.00008
1.00023
1.00049
1.00141
1.00292
1.00825
1.01835
1.04889
1.12165
1.32321
1.81233
2.23093
2.34456
2.35003
2.34057
2.32246
2.29986
2.27624
1
1
1
1
1
1.00001
1.00002
1.00007
1.00014
1.00039
1.00081
1.00233
1.00494
1.01347
1.03099
1.0812
1.20575
1.53843
2.08184
2.291
2.32225
2.31834
2.30395
2.28478
2.26304
1
1
1
1
1
1.00001
1.00002
1.00004
1.00011
1.00024
1.00063
1.00148
1.00363
1.00899
1.02175
1.05504
1.1401
1.36792
1.8837
2.21615
2.293
2.29626
2.28703
2.26922
2.24829
1
1
1
1
1
1.00001
1.00001
1.00003
1.00007
1.00017
1.00041
1.001
1.00246
1.00586
1.01484
1.03564
1.09154
1.23495
1.60721
2.08696
2.25066
2.27217
2.26761
2.25356
2.23478
1
1
1
1
1
1
1.00001
1.00002
1.00004
1.00012
1.00025
1.00073
1.00149
1.00424
1.00918
1.02454
1.0584
1.1527
1.39523
1.90412
2.18288
2.24356
2.24663
2.23808
2.22241
1
1
1
1
1
1
1.00001
1.00001
1.00003
1.00007
1.00019
1.00041
1.00112
1.00251
1.00648
1.01533
1.03861
1.09661
1.25046
1.63692
2.06558
2.20473
2.22492
2.22174
2.21033
1
1
1
1
1
1
1
1.00001
1.00002
1.00005
1.00012
1.00028
1.0007
1.00168
1.00404
1.01008
1.02413
1.06101
1.15427
1.40236
1.88571
2.13909
2.19571
2.20327
2.19985
1
1
1
1
1
1
1
1.00001
1.00001
1.00003
1.00008
1.00018
1.00046
1.00102
1.00276
1.00599
1.01617
1.03707
1.09722
1.24586
1.6238
2.02459
2.16069
2.18554
2.19132
1
1
1
1
1
1
1
1
1.00001
1.00002
1.00004
1.00012
1.00027
1.00069
1.00164
1.00395
1.00981
1.02342
1.05908
1.14871
1.38609
1.84764
2.09643
2.16406
2.18718
1
1
1
1
1
1
1
1
1
1.00001
1.00003
1.00008
1.00017
1.00044
1.00101
1.00248
1.00606
1.01449
1.03621
1.08951
1.23022
1.5787
1.98429
2.13974
2.19047
1
1
1
1
1
1
1
1
1
1.00001
1.00002
1.00005
1.0001
1.00029
1.00059
1.00169
1.00351
1.00968
1.02166
1.05659
1.1395
1.36388
1.81309
2.09277
2.2082
1
1
1
1
1
1
1
1
1
1
1.00001
1.00003
1.00008
1.00016
1.00043
1.00095
1.00246
1.00571
1.01418
1.0344
1.086
1.21844
1.55056
2.00919
2.25842
1
1
1
1
1
1
1
1
1
1
1.00001
1.00002
1.00005
1.00012
1.00028
1.00069
1.0017
1.004
1.01022
1.02398
1.06167
1.15499
1.40361
1.92189
2.35897
1
1
1
1
1
1
1
1
1
1
1.00001
1.00002
1.00003
1.0001
1.0002
1.00057
1.00125
1.0033
1.00773
1.01957
1.04825
1.12445
1.3258
1.81943
2.45237
1
1
1
1
1
1
1
1
1
1
1.00001
1.00001
1.00003
1.00008
1.00018
1.00049
1.00109
1.00302
1.00663
1.01816
1.04277
1.11446
1.30134
1.79682
2.52646
1
1
1
1
1
1
1
1
1
1
1
1.00001
1.00003
1.00007
1.00019
1.00041
1.00116
1.00247
1.00708
1.01575
1.04279
1.10732
1.29221
1.7833
2.54707
1
1
1
1
1
1
1
1
1
1
1
1.00001
1.00003
1.00006
1.00019
1.00038
1.00112
1.00244
1.00669
1.01558
1.04119
1.10481
1.28479
1.76786
2.54332
1
1
1
1
1
1
1
1
1
1
1
1.00001
1.00003
1.00007
1.00016
1.00044
1.00095
1.00272
1.00589
1.01639
1.03873
1.10428
1.27765
1.7524
2.53299
1
1
1
1
1
1
1
1
1
1
1
1.00001
1.00003
1.00007
1.00015
1.00043
1.00093
1.00268
1.00578
1.01614
1.03804
1.10248
1.27242
1.73922
2.52006
1
1
1
1
1
1
1
1
1
1
1
1.00001
1.00003
1.00006
1.00017
1.00037
1.00106
1.00228
1.0065
1.01454
1.03947
1.09886
1.26948
1.72798
2.50654
1
1
1
1
1
1
1
1
1
1
1
1.00001
1.00003
1.00007
1.00016
1.00039
1.001
1.00237
1.00623
1.01471
1.03862
1.09804
1.26544
1.71956
2.49388
1
1
1
1
1
1
1
1
1
1
1
1.00001
1.00002
1.00007
1.00015
1.00042
1.00092
1.00251
1.00583
1.01522
1.03737
1.09811
1.26155
1.71257
2.48378
1
1
1
1
1
1
1
1
1
1
1
1.00001
1.00002
1.00007
1.00014
1.00043
1.00089
1.00257
1.00567
1.01535
1.0368
1.09765
1.25878
1.70555
2.47797
1
1
1
1
1
1
1
1
1
1
1
1.00001
1.00003
1.00006
1.00017
1.00037
1.00101
1.00231
1.00609
1.01457
1.03762
1.0959
1.25757
1.69786
2.47636
1
1
1
1
1
1
1
1
1
1
1
1.00001
1.00003
1.00006
1.00017
1.00035
1.00105
1.00222
1.00625
1.01421
1.03787
1.09491
1.25633
1.68922
2.47755
1
1
1
1
1
1
1
1
1
1
1
1.00001
1.00002
1.00007
1.00016
1.00039
1.00097
1.00235
1.00604
1.01442
1.03746
1.09481
1.25508
1.68244
2.47969
1
1
1
1
1
1
1
1
1
1
1
1.00001
1.00003
1.00006
1.00016
1.00037
1.00102
1.00224
1.00624
1.01407
1.03784
1.09418
1.25484
1.6786
2.48124
2.34492
2.47443
2.7333
2.98807
2.97337
2.93305
2.91653
2.90284
2.88383
2.86178
2.84171
2.82359
2.80538
2.78599
2.76541
2.74898
2.74101
2.73865
2.74129
2.74873
2.76559
2.78679
2.81143
2.83596
2.85743
2.87779
2.89518
2.9094
2.92275
2.93282
2.94091
2.94908
2.95443
2.95979
2.96225
2.964
2.96452
2.96476
2.96372
2.96257
2.96032
2.95776
2.95247
2.94937
2.94322
2.93819
2.9317
2.92584
2.91833
2.91176
2.90343
2.89599
2.88684
2.87891
2.86978
2.86125
2.85194
2.84331
2.83318
2.82447
2.81408
2.8047
2.79449
2.78469
2.7746
2.76433
2.75465
2.74397
2.73419
2.72373
2.7134
2.70317
2.6926
2.68222
2.67179
2.66118
2.65083
2.64023
2.62984
2.61934
2.60895
2.59842
2.58824
2.57745
2.56772
2.55659
2.54727
2.53604
2.52689
2.51593
2.5067
2.49629
2.48703
2.47723
2.46832
2.45928
2.45143
2.44392
2.43867
2.4342
2.35763
2.44877
2.58207
2.79608
2.93114
2.98247
3.02313
3.02657
3.01203
3.0017
2.98691
2.97999
2.96783
2.95824
2.94372
2.93387
2.9285
2.92981
2.93903
2.94357
2.96005
2.97207
2.98844
3.0013
3.00877
3.01507
3.01726
3.01778
3.01645
3.01047
3.00566
3.00217
2.99695
2.99142
2.98282
2.97595
2.96519
2.95636
2.94488
2.93518
2.92346
2.91365
2.9013
2.89103
2.87924
2.86962
2.85826
2.84864
2.83691
2.82615
2.81465
2.80394
2.7924
2.78225
2.77105
2.76077
2.75011
2.73935
2.72899
2.71798
2.70815
2.69684
2.68764
2.67621
2.66714
2.65601
2.64664
2.63587
2.62633
2.61565
2.60623
2.59546
2.58621
2.57543
2.5662
2.55552
2.54622
2.53569
2.52637
2.51589
2.50678
2.49617
2.48748
2.47666
2.4684
2.45745
2.44943
2.43862
2.43056
2.42012
2.41186
2.40191
2.39348
2.384
2.37579
2.36704
2.35975
2.3525
2.34761
2.34351
2.34678
2.37194
2.45195
2.50482
2.62022
2.72865
2.87363
2.95548
3.00238
3.02187
3.03358
3.03905
3.04581
3.04785
3.04659
3.03717
3.03304
3.03631
3.04267
3.05096
3.06532
3.07283
3.07445
3.07314
3.06775
3.0602
3.04996
3.03805
3.02588
3.01158
2.99938
2.98454
2.97104
2.95494
2.9401
2.92337
2.90738
2.89045
2.87485
2.8583
2.84396
2.82824
2.81493
2.79982
2.78739
2.77327
2.7615
2.7483
2.73592
2.72255
2.7108
2.69784
2.68659
2.67401
2.66294
2.65062
2.63989
2.62763
2.61719
2.60511
2.59463
2.58302
2.57228
2.56123
2.55034
2.53965
2.52884
2.51834
2.50773
2.49737
2.48697
2.47678
2.46652
2.45655
2.44637
2.43667
2.42661
2.41713
2.40733
2.39796
2.38857
2.3792
2.37027
2.36095
2.35236
2.34328
2.33481
2.32613
2.31754
2.30937
2.30056
2.29291
2.28413
2.27707
2.26866
2.26238
2.25497
2.25019
2.24517
2.24357
2.32355
2.31355
2.33996
2.37788
2.42383
2.50393
2.57142
2.68466
2.77902
2.88271
2.93996
2.97477
3.0043
3.03197
3.04348
3.04696
3.05112
3.04589
3.03785
3.0491
3.05917
3.05354
3.03914
3.02331
3.00511
2.98606
2.96717
2.94675
2.92711
2.90555
2.88606
2.8643
2.84519
2.82426
2.80622
2.78675
2.76991
2.75243
2.73677
2.72163
2.70728
2.69442
2.68116
2.66972
2.65728
2.64665
2.63564
2.62589
2.61464
2.60449
2.59359
2.58385
2.57377
2.56399
2.55452
2.54475
2.5356
2.52595
2.51685
2.50742
2.49829
2.48907
2.47993
2.47073
2.46163
2.45235
2.44334
2.434
2.42505
2.41574
2.40676
2.39752
2.38843
2.3793
2.37014
2.36109
2.35197
2.34292
2.33394
2.32478
2.31604
2.30669
2.29817
2.2887
2.28026
2.27066
2.26213
2.25257
2.24393
2.23454
2.22588
2.21668
2.20819
2.19923
2.1912
2.18268
2.17565
2.16826
2.16345
2.159
2.31184
2.27648
2.27459
2.29245
2.31407
2.35835
2.40348
2.45928
2.52631
2.59589
2.68073
2.77032
2.83402
2.89836
2.94149
2.96521
2.9814
2.98587
2.98297
2.97234
2.95462
2.93103
2.90006
2.87225
2.84545
2.81952
2.79694
2.77506
2.7543
2.7342
2.71446
2.69629
2.67799
2.66186
2.64535
2.63092
2.61638
2.60308
2.59062
2.57818
2.56776
2.55624
2.54727
2.53642
2.52814
2.51771
2.51048
2.50073
2.49377
2.48336
2.47618
2.46612
2.45948
2.45
2.4434
2.43429
2.42748
2.41872
2.41168
2.40318
2.39592
2.38753
2.38011
2.37174
2.36425
2.35585
2.34827
2.33986
2.33216
2.3238
2.31595
2.30768
2.29975
2.29156
2.28369
2.27552
2.26788
2.25965
2.25241
2.24407
2.23726
2.22877
2.22223
2.21362
2.20722
2.19872
2.19235
2.18411
2.17766
2.16973
2.16319
2.1556
2.14903
2.14178
2.13536
2.1286
2.1227
2.11703
2.11269
2.10996
2.30373
2.26186
2.23821
2.23658
2.24547
2.26501
2.29426
2.32743
2.3664
2.41085
2.46133
2.51729
2.58068
2.6367
2.69772
2.75152
2.78749
2.80976
2.8051
2.78935
2.75811
2.72495
2.68641
2.65375
2.62798
2.60488
2.58857
2.57234
2.55965
2.54561
2.53491
2.52321
2.51494
2.50612
2.49972
2.49287
2.48726
2.48159
2.47624
2.47128
2.46591
2.46123
2.45585
2.45099
2.4454
2.43994
2.43458
2.42911
2.42366
2.41711
2.4108
2.40383
2.39767
2.39075
2.38448
2.37741
2.37085
2.36361
2.35679
2.3494
2.34237
2.33482
2.32761
2.31994
2.31258
2.30478
2.29727
2.28939
2.2817
2.27372
2.26587
2.25775
2.24978
2.24149
2.23348
2.225
2.2171
2.20843
2.20072
2.19182
2.18426
2.17529
2.16796
2.15913
2.15191
2.14334
2.13611
2.12792
2.1206
2.11284
2.10546
2.09816
2.09084
2.08404
2.07699
2.07083
2.06443
2.0594
2.05466
2.05257
2.29745
2.25338
2.22098
2.20373
2.19957
2.20478
2.21892
2.23744
2.26327
2.2893
2.32342
2.35945
2.4023
2.44885
2.49357
2.53711
2.56717
2.5861
2.58191
2.56413
2.53003
2.49583
2.45952
2.43454
2.41576
2.40539
2.40447
2.40469
2.40498
2.4061
2.40574
2.40594
2.40605
2.40637
2.40632
2.40611
2.4056
2.40454
2.40329
2.40072
2.39887
2.39527
2.39286
2.38828
2.38501
2.37942
2.37581
2.37027
2.36642
2.36017
2.35489
2.34805
2.34231
2.33559
2.32959
2.32293
2.31662
2.30987
2.30328
2.29637
2.28959
2.28252
2.27561
2.26843
2.26139
2.25412
2.24694
2.23961
2.23231
2.22493
2.21749
2.21008
2.20255
2.19504
2.18752
2.17984
2.17238
2.1644
2.15703
2.14891
2.14173
2.1336
2.12656
2.11854
2.11156
2.10374
2.09674
2.08919
2.08217
2.07495
2.06792
2.06105
2.05411
2.04762
2.0409
2.03489
2.0287
2.02362
2.01889
2.01662
2.29433
2.24917
2.21315
2.18743
2.1725
2.16704
2.16914
2.17762
2.19018
2.20941
2.23033
2.25954
2.29263
2.32996
2.36644
2.40321
2.4323
2.44626
2.44085
2.42233
2.39651
2.36411
2.33765
2.31852
2.305
2.30365
2.30753
2.31659
2.32615
2.33392
2.33936
2.34319
2.34533
2.34713
2.34727
2.34695
2.34613
2.34434
2.34222
2.33954
2.33647
2.33269
2.3292
2.32484
2.32091
2.31614
2.31196
2.30735
2.30303
2.29789
2.29241
2.28638
2.2804
2.27447
2.26832
2.26244
2.25601
2.25
2.24325
2.23706
2.23008
2.22376
2.21668
2.21029
2.20315
2.19667
2.18941
2.18281
2.17539
2.16864
2.16115
2.15424
2.14681
2.13978
2.13248
2.12523
2.11806
2.11069
2.10368
2.09623
2.08928
2.0818
2.07482
2.0674
2.06035
2.05309
2.04597
2.03894
2.03177
2.02501
2.01785
2.01137
2.00434
1.99818
1.99143
1.98569
1.97951
1.97459
1.96978
1.96756
2.28976
2.24651
2.20876
2.17921
2.15747
2.14439
2.13818
2.13831
2.14392
2.15394
2.17211
2.19628
2.22526
2.25907
2.29333
2.33307
2.35998
2.36644
2.35934
2.34175
2.31205
2.27925
2.25186
2.23287
2.22168
2.21366
2.21331
2.21855
2.22839
2.23873
2.24717
2.25341
2.25796
2.26098
2.26305
2.26435
2.26571
2.26637
2.2671
2.26701
2.26677
2.26611
2.26522
2.26335
2.26187
2.25888
2.2567
2.25334
2.25102
2.24734
2.24392
2.23911
2.23483
2.22973
2.22512
2.21981
2.21488
2.20931
2.20409
2.19828
2.19279
2.18674
2.18098
2.17469
2.16869
2.16222
2.15604
2.14943
2.14309
2.13631
2.12981
2.12279
2.11616
2.1088
2.10208
2.09447
2.08781
2.07999
2.07341
2.0655
2.059
2.05115
2.0447
2.03701
2.03055
2.02308
2.01653
2.00929
2.00266
1.99568
1.98901
1.98231
1.97568
1.96928
1.96283
1.95681
1.95077
1.94554
1.94073
1.93812
2.28493
2.24418
2.20686
2.17514
2.14983
2.13142
2.11952
2.11416
2.11444
2.12145
2.13703
2.16173
2.1866
2.22122
2.26239
2.30171
2.3199
2.32116
2.31181
2.29013
2.25759
2.22386
2.19543
2.17588
2.16381
2.15541
2.15271
2.15389
2.16066
2.1715
2.18382
2.19568
2.20557
2.21377
2.21963
2.22437
2.22779
2.23036
2.23261
2.23363
2.23514
2.23513
2.2349
2.23421
2.23318
2.23107
2.22901
2.22618
2.22386
2.22085
2.21767
2.21361
2.20938
2.20479
2.20012
2.19527
2.1903
2.18515
2.17988
2.1744
2.16881
2.16298
2.15714
2.15105
2.14502
2.13873
2.1325
2.12599
2.11957
2.11283
2.10628
2.09933
2.09268
2.08559
2.07904
2.07186
2.06538
2.05811
2.05162
2.0443
2.03774
2.03041
2.0237
2.01642
2.00956
2.0024
1.99544
1.98846
1.98148
1.97475
1.96782
1.96138
1.9546
1.94851
1.94199
1.93634
1.9303
1.92544
1.92061
1.91833
2.27831
2.24125
2.2054
2.17369
2.14672
2.12541
2.11038
2.10118
2.10018
2.10777
2.12401
2.14618
2.17497
2.21598
2.2628
2.29295
2.30217
2.29854
2.28462
2.25657
2.22277
2.19008
2.16249
2.14092
2.12597
2.11701
2.11044
2.1084
2.10953
2.11487
2.12401
2.13565
2.14812
2.15888
2.16759
2.17413
2.17895
2.18251
2.18506
2.18704
2.18815
2.18889
2.18894
2.18853
2.18775
2.1861
2.18457
2.18226
2.18054
2.17825
2.17594
2.17274
2.16922
2.16532
2.16116
2.15687
2.15221
2.14757
2.14248
2.13755
2.13212
2.12695
2.12123
2.11585
2.10985
2.10422
2.09794
2.09199
2.08547
2.07919
2.0725
2.06588
2.05922
2.0524
2.04581
2.03885
2.03234
2.02533
2.01889
2.01192
2.00552
1.99865
1.99224
1.98547
1.97901
1.97231
1.96577
1.95914
1.95255
1.94602
1.93944
1.93309
1.9266
1.92053
1.91425
1.90861
1.90276
1.89792
1.89323
1.89091
2.27093
2.23687
2.20349
2.17213
2.14565
2.12308
2.10741
2.09792
2.0985
2.10915
2.1253
2.14995
2.18687
2.23535
2.27578
2.29085
2.29277
2.28472
2.26502
2.23241
2.19909
2.16918
2.144
2.1224
2.10579
2.0927
2.08517
2.07897
2.07648
2.0769
2.08096
2.08836
2.09977
2.11229
2.12424
2.13426
2.14257
2.14866
2.15355
2.1569
2.15952
2.16152
2.16257
2.1638
2.16384
2.1636
2.16299
2.1616
2.16041
2.15855
2.15687
2.15419
2.15125
2.1476
2.14387
2.13966
2.13535
2.13068
2.12595
2.12097
2.11598
2.11078
2.10556
2.10012
2.09462
2.08887
2.08307
2.07694
2.07085
2.06436
2.05811
2.05141
2.04511
2.03821
2.03186
2.02479
2.01841
2.01126
2.00483
1.99768
1.99121
1.98411
1.97759
1.97059
1.96402
1.95715
1.95054
1.94383
1.93721
1.93068
1.92412
1.91782
1.91139
1.90538
1.89921
1.89363
1.88792
1.88313
1.87862
1.87624
2.26264
2.23215
2.20173
2.17198
2.14635
2.12455
2.10987
2.10398
2.10881
2.12234
2.14258
2.17382
2.22185
2.26717
2.29043
2.29461
2.29038
2.2759
2.2497
2.21761
2.18796
2.16092
2.13733
2.11588
2.09781
2.08237
2.07061
2.06194
2.05689
2.05335
2.05344
2.05525
2.06059
2.06971
2.08129
2.0933
2.10394
2.11287
2.11958
2.12462
2.12807
2.13043
2.13207
2.13293
2.13357
2.13341
2.13287
2.13174
2.13034
2.12869
2.12704
2.12498
2.1223
2.1191
2.11541
2.11156
2.10724
2.10296
2.09829
2.09375
2.08885
2.08407
2.07892
2.0738
2.06833
2.0628
2.05699
2.05103
2.04491
2.03865
2.03246
2.02603
2.01983
2.01328
2.00712
2.00047
1.99434
1.98765
1.98151
1.97483
1.96863
1.96203
1.95574
1.94921
1.94284
1.9364
1.92997
1.92362
1.91718
1.91096
1.90458
1.89856
1.89235
1.88663
1.88069
1.87542
1.86999
1.86556
1.86138
1.85926
2.25103
2.22459
2.1978
2.17158
2.14828
2.12966
2.11888
2.11987
2.13066
2.14642
2.17419
2.22041
2.26608
2.29343
2.30159
2.29932
2.28855
2.26628
2.2381
2.20996
2.18411
2.15975
2.13745
2.11654
2.0976
2.08071
2.06592
2.05451
2.04458
2.03934
2.03478
2.03334
2.03359
2.03662
2.04351
2.05392
2.06533
2.07634
2.08572
2.0934
2.09887
2.10322
2.10575
2.10797
2.10882
2.10974
2.1096
2.10912
2.10823
2.10689
2.10565
2.10404
2.10198
2.0992
2.09589
2.09232
2.0883
2.08423
2.07978
2.0754
2.07069
2.06607
2.06109
2.05614
2.05084
2.04547
2.03982
2.03401
2.02812
2.02202
2.01601
2.00967
2.00362
1.99711
1.99104
1.98445
1.97835
1.97174
1.96558
1.959
1.95275
1.94623
1.9399
1.93343
1.92704
1.92062
1.91422
1.90787
1.90151
1.89531
1.88905
1.88308
1.87703
1.87143
1.86574
1.86071
1.85566
1.85161
1.84793
1.84608
2.24089
2.21639
2.19348
2.17077
2.15251
2.13869
2.13722
2.14492
2.15806
2.18398
2.22618
2.27148
2.3011
2.31076
2.30959
2.30174
2.28422
2.25832
2.23204
2.20794
2.18504
2.16336
2.14209
2.12183
2.10244
2.08446
2.06806
2.05366
2.04076
2.03107
2.02234
2.01867
2.01506
2.01489
2.01592
2.02057
2.02868
2.03889
2.04938
2.05893
2.06694
2.07314
2.07769
2.08062
2.08282
2.08381
2.08464
2.08438
2.08377
2.08256
2.08128
2.07978
2.07797
2.07564
2.07262
2.06932
2.06553
2.06172
2.05747
2.05332
2.04877
2.04431
2.03949
2.03466
2.02952
2.02425
2.01878
2.01313
2.0075
2.00157
1.99582
1.98969
1.98387
1.9776
1.97173
1.9654
1.95946
1.95312
1.94709
1.94077
1.93464
1.92834
1.92215
1.91589
1.90966
1.90346
1.89726
1.89115
1.88504
1.8791
1.87315
1.8675
1.86179
1.8566
1.85127
1.84678
1.84219
1.8388
1.8356
1.83409
2.22884
2.20887
2.18841
2.17119
2.15862
2.15692
2.16306
2.17618
2.20013
2.23954
2.28307
2.31233
2.3224
2.32191
2.31564
2.30041
2.27684
2.25346
2.23102
2.21051
2.18951
2.16927
2.14867
2.12885
2.10923
2.09072
2.07282
2.05666
2.04122
2.0285
2.01698
2.00887
2.00227
1.99916
1.99691
1.99706
1.9992
2.00509
2.01354
2.02321
2.03267
2.04129
2.04795
2.05326
2.0565
2.0589
2.05978
2.06035
2.05996
2.05914
2.05799
2.05678
2.05539
2.05371
2.05128
2.04845
2.04503
2.04149
2.03742
2.0334
2.02893
2.02458
2.01983
2.01513
2.0101
2.00497
1.99967
1.99423
1.98876
1.98304
1.97743
1.97148
1.96578
1.95968
1.95394
1.94777
1.94198
1.93579
1.92993
1.92377
1.9178
1.91168
1.90561
1.89954
1.8934
1.8874
1.88127
1.87539
1.86936
1.8637
1.85788
1.85256
1.84712
1.84234
1.83749
1.83364
1.82971
1.82705
1.82465
1.82377
2.21699
2.20048
2.18661
2.175
2.17324
2.1797
2.19354
2.21776
2.25745
2.29903
2.32647
2.33585
2.33507
2.32859
2.31379
2.29349
2.27201
2.25249
2.23324
2.2145
2.1951
2.17563
2.1559
2.13609
2.11674
2.09759
2.07928
2.06161
2.04486
2.02997
2.01602
2.0047
1.99479
1.98758
1.98274
1.97983
1.97808
1.97829
1.98125
1.98785
1.99632
2.00534
2.01398
2.02122
2.02706
2.03089
2.03366
2.03474
2.03545
2.03503
2.03417
2.03306
2.03177
2.03039
2.02834
2.02592
2.02265
2.01935
2.01542
2.01165
2.00737
2.00328
1.99876
1.99433
1.98951
1.98467
1.97965
1.97447
1.96925
1.96379
1.95838
1.95269
1.94713
1.94129
1.9356
1.92968
1.9239
1.91795
1.9121
1.90617
1.90028
1.89438
1.8885
1.88266
1.87682
1.87107
1.8653
1.85974
1.85404
1.84882
1.84327
1.83854
1.83336
1.82934
1.82498
1.82196
1.8187
1.81697
1.81571
1.8154
2.20678
2.19284
2.18577
2.1865
2.19489
2.21009
2.23496
2.27595
2.31587
2.34069
2.34958
2.34819
2.3405
2.32546
2.30598
2.28724
2.26946
2.25277
2.236
2.21848
2.20055
2.18158
2.16253
2.14309
2.1238
2.10467
2.08564
2.06741
2.0497
2.03332
2.01768
2.00372
1.99103
1.98017
1.97191
1.9654
1.96169
1.95815
1.95746
1.95785
1.96204
1.96903
1.97751
1.9862
1.99379
2.00011
2.00449
2.00765
2.00906
2.00994
2.00953
2.00871
2.00744
2.00635
2.00463
2.00283
1.99994
1.99714
1.9935
1.99013
1.98604
1.9822
1.9778
1.9735
1.96883
1.96415
1.95933
1.95433
1.94938
1.94406
1.93898
1.93337
1.92816
1.92237
1.91706
1.91122
1.90582
1.90003
1.89451
1.88883
1.88316
1.87765
1.87182
1.86649
1.86054
1.85542
1.84946
1.84456
1.83879
1.83414
1.82885
1.82461
1.82011
1.8167
1.81334
1.81112
1.80906
1.80891
1.80944
1.80892
2.19765
2.19099
2.19364
2.20421
2.22377
2.25094
2.29357
2.33415
2.35655
2.36422
2.36218
2.35282
2.33548
2.31697
2.29952
2.28354
2.26873
2.25355
2.23833
2.22158
2.20452
2.18606
2.16767
2.14842
2.12944
2.10997
2.091
2.07211
2.05377
2.03615
2.01924
2.00354
1.98916
1.97603
1.96493
1.95497
1.94811
1.94215
1.93839
1.93512
1.93481
1.93615
1.94112
1.94857
1.95672
1.96469
1.97176
1.97711
1.98109
1.98312
1.98416
1.98385
1.98289
1.98183
1.98044
1.97894
1.97672
1.97409
1.971
1.96777
1.96413
1.96045
1.95635
1.95224
1.9478
1.94341
1.93873
1.93403
1.92917
1.92419
1.91921
1.91401
1.90891
1.90353
1.89831
1.89286
1.88751
1.8821
1.87663
1.87129
1.86576
1.86049
1.85495
1.84976
1.8443
1.83919
1.83394
1.82896
1.82409
1.81942
1.81516
1.81116
1.80793
1.80503
1.80304
1.80167
1.80179
1.80273
1.8047
1.80477
2.19423
2.19594
2.20923
2.23206
2.265
2.31061
2.35223
2.37299
2.37818
2.37521
2.36332
2.34385
2.3251
2.30869
2.29416
2.28083
2.26768
2.25376
2.23893
2.22294
2.20604
2.18837
2.17022
2.15162
2.13284
2.11371
2.09482
2.07571
2.05715
2.03887
2.02126
2.00458
1.98865
1.97403
1.96055
1.94827
1.9381
1.92911
1.92273
1.91685
1.91343
1.91102
1.91108
1.9134
1.91918
1.92689
1.93503
1.94246
1.9487
1.95313
1.95588
1.95719
1.95714
1.95649
1.9552
1.95429
1.95236
1.95074
1.94767
1.94522
1.94163
1.93853
1.93447
1.93078
1.92645
1.92233
1.91781
1.91332
1.90868
1.90393
1.89919
1.8943
1.88936
1.88442
1.8792
1.8743
1.86882
1.86401
1.85839
1.85368
1.84809
1.8434
1.83794
1.83324
1.82802
1.82325
1.81843
1.81372
1.80942
1.80513
1.80167
1.79832
1.79624
1.79412
1.79383
1.79421
1.79559
1.79858
1.80229
1.80518
2.19617
2.2096
2.23459
2.27482
2.3248
2.36749
2.38724
2.39142
2.38739
2.37313
2.35242
2.33309
2.31677
2.30294
2.29039
2.27839
2.2658
2.25254
2.23799
2.22266
2.20612
2.18915
2.1713
2.1533
2.13453
2.1159
2.09659
2.07769
2.05875
2.04032
2.02236
2.00497
1.98835
1.9724
1.95764
1.94355
1.93103
1.91958
1.9099
1.90224
1.89548
1.89046
1.88686
1.88597
1.88632
1.88994
1.89642
1.90426
1.91209
1.91917
1.92462
1.92843
1.93048
1.93104
1.93033
1.92957
1.92808
1.92685
1.92439
1.92211
1.91894
1.91597
1.91238
1.90881
1.90501
1.90095
1.89693
1.89247
1.88829
1.88359
1.87928
1.87446
1.86998
1.86508
1.86039
1.8555
1.85056
1.84575
1.84062
1.83594
1.83069
1.82618
1.82097
1.81661
1.81158
1.80742
1.80274
1.79896
1.79496
1.79187
1.7891
1.78731
1.78584
1.78591
1.78683
1.78865
1.79159
1.79791
1.80628
1.81203
2.20657
2.23837
2.28867
2.34076
2.38239
2.40054
2.40462
2.39824
2.3809
2.35928
2.33913
2.32268
2.3093
2.29787
2.28681
2.27569
2.26357
2.25044
2.23609
2.22091
2.20473
2.18802
2.17048
2.15266
2.1341
2.11556
2.09655
2.0779
2.05902
2.04059
2.02242
2.0045
1.98752
1.97063
1.95492
1.93956
1.92536
1.91211
1.90009
1.88965
1.88078
1.87373
1.86719
1.86326
1.86067
1.86071
1.86227
1.86716
1.87438
1.88224
1.88979
1.89605
1.90078
1.90345
1.90472
1.90453
1.90363
1.90274
1.90141
1.89945
1.89685
1.89394
1.89082
1.88747
1.88403
1.88026
1.87646
1.87225
1.86821
1.86367
1.85953
1.85475
1.85058
1.84566
1.84149
1.83649
1.83232
1.82732
1.82306
1.81817
1.81377
1.8091
1.80468
1.80027
1.79605
1.79205
1.78825
1.78493
1.78193
1.77989
1.77819
1.77752
1.77778
1.7791
1.78126
1.78599
1.79255
1.80308
1.81521
1.82265
2.2367
2.29804
2.35669
2.39728
2.41238
2.41617
2.4068
2.38738
2.36429
2.34437
2.32793
2.31504
2.30357
2.29308
2.28214
2.2705
2.25826
2.24479
2.23085
2.21557
2.20018
2.18341
2.16691
2.14897
2.13161
2.11302
2.09506
2.07626
2.05795
2.03939
2.02117
2.00324
1.98566
1.96857
1.95206
1.93602
1.9209
1.90632
1.89297
1.88057
1.86964
1.86042
1.85245
1.84583
1.84036
1.8374
1.83661
1.83681
1.83961
1.84535
1.85309
1.86087
1.86831
1.87393
1.87793
1.87982
1.88024
1.87972
1.87873
1.87763
1.87556
1.87301
1.87002
1.86702
1.8638
1.86044
1.85691
1.8531
1.84925
1.84508
1.841
1.83658
1.83237
1.8278
1.82359
1.81896
1.81478
1.81019
1.80597
1.8015
1.79726
1.79292
1.78886
1.78475
1.78109
1.77751
1.77457
1.77203
1.77048
1.76933
1.76938
1.77024
1.77187
1.77549
1.78015
1.78957
1.80031
1.81339
1.82691
1.83409
2.30333
2.38086
2.41928
2.43238
2.42926
2.41504
2.3917
2.36808
2.34685
2.33092
2.31812
2.30773
2.29765
2.28731
2.27686
2.26533
2.25353
2.24008
2.22656
2.21127
2.19641
2.17969
2.16362
2.14583
2.12866
2.11025
2.09218
2.07359
2.05518
2.03688
2.01877
2.00097
1.98346
1.96631
1.94952
1.93337
1.91747
1.90272
1.88815
1.8752
1.86244
1.85165
1.84159
1.83346
1.82603
1.81989
1.81556
1.81369
1.81354
1.81481
1.81885
1.82538
1.8334
1.84106
1.84803
1.85291
1.85624
1.85773
1.8577
1.85716
1.85602
1.85456
1.85183
1.84929
1.84592
1.84309
1.83943
1.83632
1.83227
1.82881
1.82444
1.82065
1.8161
1.81203
1.80753
1.80333
1.799
1.79483
1.79063
1.78651
1.78245
1.77847
1.77464
1.77106
1.76776
1.76496
1.76281
1.76143
1.76092
1.76121
1.76242
1.76484
1.76859
1.77633
1.78579
1.79854
1.81187
1.82524
1.8375
1.84306
2.40333
2.45096
2.45931
2.45043
2.42792
2.40006
2.37551
2.3544
2.33709
2.3237
2.31274
2.30293
2.29299
2.28228
2.27077
2.25818
2.24522
2.23148
2.21751
2.20283
2.18768
2.17197
2.15556
2.13881
2.12132
2.10387
2.08587
2.06816
2.05036
2.03279
2.01537
1.99796
1.98104
1.9641
1.94769
1.93151
1.91575
1.90067
1.88584
1.87211
1.85864
1.84656
1.835
1.82507
1.8162
1.80838
1.80166
1.79648
1.79373
1.7931
1.79357
1.79597
1.80124
1.80893
1.81688
1.8251
1.83113
1.83614
1.83837
1.83926
1.83871
1.83791
1.83673
1.83441
1.83152
1.82845
1.82514
1.82199
1.81826
1.81486
1.81071
1.80702
1.8027
1.79872
1.79439
1.79021
1.78594
1.78178
1.77768
1.77369
1.76992
1.76621
1.76295
1.7598
1.7574
1.7555
1.7546
1.75433
1.75502
1.75651
1.75929
1.76494
1.77306
1.78446
1.79718
1.8111
1.82423
1.83535
1.84447
1.84776
2.52783
2.52251
2.49877
2.46076
2.42182
2.39052
2.36654
2.34814
2.33312
2.32061
2.30969
2.2996
2.28926
2.27812
2.26612
2.25306
2.23953
2.22536
2.21098
2.19623
2.18123
2.16584
2.15007
2.13379
2.11711
2.09998
2.08283
2.06541
2.04819
2.03075
2.01384
1.99669
1.98013
1.96338
1.94725
1.93121
1.91562
1.90058
1.88574
1.87182
1.85806
1.84542
1.83313
1.8221
1.81179
1.80295
1.79506
1.78738
1.78154
1.77752
1.77609
1.77659
1.77834
1.78232
1.78906
1.79744
1.80578
1.81368
1.81936
1.82309
1.82495
1.82484
1.82429
1.82316
1.82158
1.81835
1.81557
1.81169
1.80846
1.80449
1.80092
1.79679
1.79281
1.78856
1.78429
1.78013
1.77577
1.77185
1.76767
1.76404
1.76034
1.75716
1.75427
1.75197
1.7505
1.74982
1.74996
1.75087
1.75279
1.7568
1.76329
1.7732
1.78493
1.79839
1.81178
1.82436
1.83467
1.84213
1.84751
1.84858
2.65315
2.61161
2.55871
2.49176
2.44231
2.40676
2.38144
2.36184
2.34502
2.33015
2.31669
2.30423
2.29191
2.27908
2.2659
2.25184
2.23754
2.22277
2.20784
2.19276
2.17738
2.16192
2.14605
2.13019
2.11384
2.09743
2.08075
2.06387
2.0473
2.03021
2.01403
1.99704
1.98136
1.96489
1.94961
1.93404
1.91911
1.9045
1.89004
1.87626
1.86258
1.84958
1.83696
1.825
1.81381
1.80339
1.79421
1.78592
1.7787
1.77226
1.76812
1.76577
1.76529
1.76643
1.76922
1.77424
1.78286
1.79139
1.80069
1.80719
1.81292
1.81518
1.81657
1.81585
1.81488
1.81321
1.81036
1.80691
1.80311