/*--------------------------------*- C++ -*----------------------------------*\
  =========                 |
  \\      /  F ield         | OpenFOAM: The Open Source CFD Toolbox
   \\    /   O peration     | Website:  https://openfoam.org
    \\  /    A nd           | Version:  13
     \\/     M anipulation  |
\*---------------------------------------------------------------------------*/
FoamFile
{
    format      ascii;
    class       volVectorField;
    location    "8";
    object      U;
}
// * * * * * * * * * * * * * * * * * * * * * * * * * * * * * * * * * * * * * //

dimensions      [0 1 -1 0 0 0 0];

internalField   nonuniform List<vector> 
5250
(
(2.99999 1.12994e-08 0)
(2.99998 7.39398e-08 0)
(2.99996 2.49795e-07 0)
(2.99989 7.17338e-07 0)
(2.99972 1.84679e-06 0)
(2.99932 4.73034e-06 0)
(2.99829 1.15417e-05 0)
(2.99582 2.88826e-05 0)
(2.98956 7.0847e-05 0)
(2.97392 0.000173753 0)
(2.93271 0.000444589 0)
(2.81794 0.00115814 0)
(2.48192 0.0032156 0)
(1.54675 0.00935124 0)
(0.692315 0.0227711 0)
(0.535595 0.0231276 0)
(0.563296 0.0237986 0)
(0.557883 0.0254714 0)
(0.504596 0.0272882 0)
(0.418418 0.0293092 0)
(0.336477 0.0317739 0)
(0.267637 0.0346485 0)
(0.198061 0.0376967 0)
(0.118869 0.0412607 0)
(0.0520468 0.0463326 0)
(2.99999 3.06333e-08 0)
(2.99998 1.99072e-07 0)
(2.99996 7.52071e-07 0)
(2.99989 1.9258e-06 0)
(2.99972 5.63719e-06 0)
(2.99932 1.34181e-05 0)
(2.99831 3.39983e-05 0)
(2.99587 8.81945e-05 0)
(2.98968 0.000207234 0)
(2.97423 0.00054356 0)
(2.93353 0.00134449 0)
(2.82024 0.00359261 0)
(2.48866 0.00992636 0)
(1.56233 0.0289745 0)
(0.701857 0.0691466 0)
(0.533553 0.0667736 0)
(0.562329 0.0658965 0)
(0.557669 0.0685756 0)
(0.504343 0.0716003 0)
(0.418288 0.0752024 0)
(0.336335 0.0794715 0)
(0.266924 0.0841258 0)
(0.196362 0.0885034 0)
(0.115903 0.0927791 0)
(0.0487007 0.0970243 0)
(3 2.92322e-08 0)
(2.99998 4.59852e-07 0)
(2.99996 9.2533e-07 0)
(2.99989 4.41082e-06 0)
(2.99973 7.09287e-06 0)
(2.99934 2.87727e-05 0)
(2.99835 4.4485e-05 0)
(2.99596 0.000177624 0)
(2.98993 0.000298003 0)
(2.97487 0.0010124 0)
(2.93523 0.00216834 0)
(2.82515 0.00622398 0)
(2.50296 0.0168811 0)
(1.59713 0.0495351 0)
(0.723989 0.119596 0)
(0.530987 0.112985 0)
(0.56281 0.110375 0)
(0.560425 0.115274 0)
(0.507604 0.121009 0)
(0.422312 0.128169 0)
(0.340722 0.136094 0)
(0.2709 0.14449 0)
(0.199347 0.152562 0)
(0.117463 0.159974 0)
(0.0483626 0.165539 0)
(3 5.94468e-08 0)
(2.99998 6.27688e-07 0)
(2.99996 1.45373e-06 0)
(2.99989 6.10027e-06 0)
(2.99974 1.09514e-05 0)
(2.99935 3.87973e-05 0)
(2.99843 7.19355e-05 0)
(2.99608 0.000231661 0)
(2.99037 0.000468452 0)
(2.97579 0.00135736 0)
(2.93787 0.00315317 0)
(2.83254 0.00866242 0)
(2.52485 0.023846 0)
(1.6511 0.0694892 0)
(0.758198 0.171046 0)
(0.526861 0.158891 0)
(0.564685 0.153995 0)
(0.566487 0.16126 0)
(0.514736 0.169891 0)
(0.430758 0.180935 0)
(0.349709 0.192902 0)
(0.279599 0.20558 0)
(0.206957 0.218128 0)
(0.122819 0.229483 0)
(0.05023 0.236841 0)
(3 1.14515e-07 0)
(2.99999 6.46642e-07 0)
(2.99996 2.3674e-06 0)
(2.9999 6.3436e-06 0)
(2.99976 1.75849e-05 0)
(2.99939 4.1852e-05 0)
(2.99851 0.000112337 0)
(2.99629 0.000256044 0)
(2.99087 0.000689414 0)
(2.9771 0.00160741 0)
(2.94134 0.00423884 0)
(2.84234 0.0109399 0)
(2.55406 0.030672 0)
(1.72483 0.0887611 0)
(0.804818 0.223856 0)
(0.521339 0.204713 0)
(0.568093 0.196932 0)
(0.575939 0.206456 0)
(0.525695 0.217888 0)
(0.443552 0.232809 0)
(0.363278 0.249088 0)
(0.293034 0.266566 0)
(0.219131 0.284317 0)
(0.131786 0.300651 0)
(0.0539743 0.310771 0)
(3 1.29047e-07 0)
(2.99999 8.05744e-07 0)
(2.99996 2.79657e-06 0)
(2.99991 7.87271e-06 0)
(2.99977 2.08274e-05 0)
(2.99943 5.25524e-05 0)
(2.99861 0.000131073 0)
(2.99656 0.000325689 0)
(2.9915 0.000804731 0)
(2.97874 0.00200473 0)
(2.94566 0.00506759 0)
(2.85455 0.0133 0)
(2.5902 0.0369179 0)
(1.8196 0.106929 0)
(0.865007 0.27751 0)
(0.516046 0.250458 0)
(0.574687 0.239543 0)
(0.590107 0.251326 0)
(0.541521 0.265548 0)
(0.461664 0.284541 0)
(0.382372 0.305646 0)
(0.312132 0.328854 0)
(0.236905 0.353292 0)
(0.14542 0.376746 0)
(0.0603144 0.392021 0)
(3 1.45716e-07 0)
(2.99999 8.90721e-07 0)
(2.99997 3.23684e-06 0)
(2.99992 8.71359e-06 0)
(2.99979 2.41284e-05 0)
(2.99948 5.89994e-05 0)
(2.99874 0.000150387 0)
(2.99685 0.000373724 0)
(2.99227 0.000913054 0)
(2.98065 0.00231591 0)
(2.95076 0.00577629 0)
(2.86894 0.0152258 0)
(2.63262 0.0420281 0)
(1.93598 0.121861 0)
(0.941269 0.327341 0)
(0.515808 0.296556 0)
(0.587529 0.282772 0)
(0.611078 0.295967 0)
(0.563919 0.312614 0)
(0.48666 0.336044 0)
(0.408623 0.362728 0)
(0.338731 0.392984 0)
(0.262541 0.42621 0)
(0.166352 0.460379 0)
(0.0709788 0.48577 0)
(3 1.71287e-07 0)
(2.99999 8.96297e-07 0)
(2.99997 3.60882e-06 0)
(2.99992 8.77025e-06 0)
(2.99981 2.67848e-05 0)
(2.99954 5.95322e-05 0)
(2.99887 0.000168397 0)
(2.9972 0.000377207 0)
(2.99312 0.00102544 0)
(2.9828 0.00239773 0)
(2.9564 0.0063264 0)
(2.88491 0.016189 0)
(2.6796 0.0451212 0)
(2.07097 0.130713 0)
(1.03735 0.366996 0)
(0.530811 0.345376 0)
(0.610571 0.331206 0)
(0.641057 0.342668 0)
(0.595293 0.360065 0)
(0.521007 0.387599 0)
(0.444401 0.420435 0)
(0.375379 0.45919 0)
(0.299294 0.503745 0)
(0.199273 0.553999 0)
(0.0898042 0.600191 0)
(3 1.5619e-07 0)
(2.99999 9.28938e-07 0)
(2.99997 3.26527e-06 0)
(2.99993 9.10955e-06 0)
(2.99984 2.42786e-05 0)
(2.9996 6.00488e-05 0)
(2.999 0.000156536 0)
(2.99757 0.000368038 0)
(2.99396 0.000976468 0)
(2.98508 0.00229629 0)
(2.96225 0.00602905 0)
(2.90141 0.0153223 0)
(2.72889 0.0423364 0)
(2.21997 0.121917 0)
(1.16626 0.356568 0)
(0.5841 0.382827 0)
(0.653213 0.382896 0)
(0.683771 0.390433 0)
(0.639211 0.409148 0)
(0.567984 0.439506 0)
(0.492922 0.479172 0)
(0.425418 0.526809 0)
(0.352121 0.585002 0)
(0.253506 0.660494 0)
(0.125225 0.75 0)
(3 1.18628e-07 0)
(2.99999 8.81724e-07 0)
(2.99998 2.66811e-06 0)
(2.99994 8.63582e-06 0)
(2.99986 1.9958e-05 0)
(2.99965 5.6762e-05 0)
(2.99913 0.000127211 0)
(2.99788 0.000346403 0)
(2.99472 0.000790127 0)
(2.98701 0.00208304 0)
(2.96728 0.00497609 0)
(2.91517 0.0130597 0)
(2.76899 0.0346717 0)
(2.33956 0.0985026 0)
(1.30229 0.293447 0)
(0.640455 0.413191 0)
(0.686566 0.440844 0)
(0.71885 0.440327 0)
(0.684485 0.460351 0)
(0.621685 0.491671 0)
(0.552327 0.537766 0)
(0.489609 0.593623 0)
(0.427623 0.669932 0)
(0.346125 0.787321 0)
(0.193756 0.994102 0)
(3 1.17883e-07 0)
(2.99999 7.28694e-07 0)
(2.99998 2.60876e-06 0)
(2.99995 7.08036e-06 0)
(2.99988 1.9258e-05 0)
(2.99969 4.74771e-05 0)
(2.99925 0.000119278 0)
(2.99812 0.000296249 0)
(2.9954 0.000715864 0)
(2.98856 0.00180801 0)
(2.9714 0.00439122 0)
(2.92609 0.0112768 0)
(2.79966 0.0296347 0)
(2.42949 0.082856 0)
(1.4526 0.244751 0)
(0.717065 0.460078 0)
(0.700839 0.493173 0)
(0.730697 0.489811 0)
(0.719054 0.50893 0)
(0.672872 0.541054 0)
(0.617026 0.590578 0)
(0.568458 0.654663 0)
(0.536633 0.746651 0)
(0.534049 0.890521 0)
(0.568236 1.13229 0)
(3 1.13792e-07 0)
(2.99999 6.99504e-07 0)
(2.99998 2.45429e-06 0)
(2.99996 6.80646e-06 0)
(2.99989 1.81564e-05 0)
(2.99973 4.49001e-05 0)
(2.99934 0.000113971 0)
(2.99838 0.000276179 0)
(2.99598 0.000692913 0)
(2.99007 0.00168738 0)
(2.97515 0.0042251 0)
(2.93621 0.0106415 0)
(2.82809 0.0280558 0)
(2.51351 0.0780125 0)
(1.63567 0.227818 0)
(0.826606 0.509193 0)
(0.708191 0.526973 0)
(0.738782 0.52897 0)
(0.74611 0.547499 0)
(0.718699 0.583041 0)
(0.68227 0.634137 0)
(0.654842 0.704113 0)
(0.655075 0.80168 0)
(0.707837 0.938296 0)
(0.834481 1.11639 0)
(3 1.04265e-07 0)
(2.99999 7.0901e-07 0)
(2.99999 2.26956e-06 0)
(2.99996 6.93682e-06 0)
(2.99991 1.69476e-05 0)
(2.99977 4.53862e-05 0)
(2.99944 0.000107843 0)
(2.9986 0.000276336 0)
(2.99658 0.000668082 0)
(2.9915 0.0016705 0)
(2.97886 0.00413762 0)
(2.94593 0.0104659 0)
(2.85571 0.0274022 0)
(2.59432 0.0759576 0)
(1.83949 0.220218 0)
(0.962556 0.548857 0)
(0.719883 0.554443 0)
(0.750617 0.558043 0)
(0.772785 0.575923 0)
(0.762859 0.615462 0)
(0.745099 0.668673 0)
(0.740055 0.738721 0)
(0.763665 0.829848 0)
(0.836989 0.940927 0)
(0.977981 1.04999 0)
(3 1.06498e-07 0)
(3 6.43283e-07 0)
(2.99999 2.31178e-06 0)
(2.99997 6.29147e-06 0)
(2.99992 1.7141e-05 0)
(2.99981 4.23355e-05 0)
(2.99953 0.000107603 0)
(2.99884 0.000265321 0)
(2.99715 0.000658373 0)
(2.99296 0.00164195 0)
(2.98249 0.00405983 0)
(2.95556 0.0103253 0)
(2.88276 0.0268361 0)
(2.67379 0.0742556 0)
(2.05809 0.215043 0)
(1.12519 0.581081 0)
(0.750649 0.589441 0)
(0.775197 0.591635 0)
(0.806129 0.602023 0)
(0.810292 0.640426 0)
(0.80583 0.693937 0)
(0.816194 0.75941 0)
(0.853973 0.836908 0)
(0.931604 0.922237 0)
(1.06416 0.992944 0)
(3 9.57747e-08 0)
(3 5.7531e-07 0)
(2.99999 2.08841e-06 0)
(2.99997 5.62203e-06 0)
(2.99994 1.55275e-05 0)
(2.99984 3.77519e-05 0)
(2.99962 9.76564e-05 0)
(2.99906 0.000236261 0)
(2.99773 0.000593481 0)
(2.99434 0.00146181 0)
(2.9861 0.00363326 0)
(2.96495 0.00913283 0)
(2.90903 0.0236122 0)
(2.75225 0.0642454 0)
(2.29242 0.184939 0)
(1.34107 0.534575 0)
(0.835745 0.613403 0)
(0.826648 0.628849 0)
(0.851698 0.634288 0)
(0.865357 0.664224 0)
(0.867548 0.712281 0)
(0.884615 0.770311 0)
(0.928146 0.834477 0)
(1.00411 0.899916 0)
(1.12323 0.950902 0)
(3 8.13718e-08 0)
(3 4.84946e-07 0)
(2.99999 1.72425e-06 0)
(2.99998 4.72333e-06 0)
(2.99995 1.28209e-05 0)
(2.99988 3.10326e-05 0)
(2.9997 8.13444e-05 0)
(2.99926 0.000189151 0)
(2.99817 0.000495705 0)
(2.9955 0.00114667 0)
(2.98888 0.00298587 0)
(2.97224 0.00712102 0)
(2.92866 0.0185309 0)
(2.80825 0.0485664 0)
(2.45922 0.136875 0)
(1.56608 0.40883 0)
(0.93104 0.636786 0)
(0.873964 0.666668 0)
(0.893201 0.675914 0)
(0.916184 0.691803 0)
(0.92603 0.729128 0)
(0.946469 0.777511 0)
(0.990787 0.829849 0)
(1.06249 0.880663 0)
(1.16765 0.919486 0)
(3 6.36205e-08 0)
(3 4.21562e-07 0)
(2.99999 1.39189e-06 0)
(2.99998 4.10774e-06 0)
(2.99996 1.03138e-05 0)
(2.9999 2.70268e-05 0)
(2.99976 6.4468e-05 0)
(2.99941 0.000165715 0)
(2.99852 0.000392014 0)
(2.99641 0.000998194 0)
(2.99107 0.00238479 0)
(2.97788 0.00602892 0)
(2.94347 0.014953 0)
(2.84941 0.0392739 0)
(2.57857 0.107993 0)
(1.81778 0.318025 0)
(1.06385 0.6736 0)
(0.904803 0.700566 0)
(0.919974 0.711919 0)
(0.951439 0.717482 0)
(0.975074 0.744578 0)
(1.00048 0.783753 0)
(1.04424 0.826085 0)
(1.11088 0.865791 0)
(1.20337 0.895727 0)
(3 5.33212e-08 0)
(3 3.63847e-07 0)
(2.99999 1.18891e-06 0)
(2.99999 3.55221e-06 0)
(2.99997 8.84817e-06 0)
(2.99992 2.35322e-05 0)
(2.99981 5.55084e-05 0)
(2.99953 0.000145395 0)
(2.99886 0.000338822 0)
(2.99716 0.000883363 0)
(2.99307 0.00208065 0)
(2.9827 0.00536395 0)
(2.95631 0.0131753 0)
(2.88507 0.0346697 0)
(2.68186 0.0946704 0)
(2.0867 0.275157 0)
(1.24459 0.697497 0)
(0.94495 0.732722 0)
(0.948258 0.739793 0)
(0.981902 0.739886 0)
(1.01737 0.756657 0)
(1.04794 0.788111 0)
(1.09063 0.822921 0)
(1.15198 0.85452 0)
(1.23361 0.877793 0)
(3 4.61252e-08 0)
(3 2.93927e-07 0)
(3 1.00032e-06 0)
(2.99999 2.86946e-06 0)
(2.99998 7.44438e-06 0)
(2.99994 1.89665e-05 0)
(2.99986 4.71883e-05 0)
(2.99964 0.000116227 0)
(2.99914 0.000289932 0)
(2.99787 0.000704661 0)
(2.99481 0.00176856 0)
(2.98712 0.004326 0)
(2.9679 0.0108996 0)
(2.91721 0.027956 0)
(2.77695 0.0754971 0)
(2.36801 0.216622 0)
(1.50329 0.614308 0)
(1.04242 0.74152 0)
(1.00035 0.760273 0)
(1.02072 0.764389 0)
(1.05955 0.770745 0)
(1.094 0.793394 0)
(1.13406 0.821219 0)
(1.18912 0.846424 0)
(1.2609 0.864571 0)
(3 3.83087e-08 0)
(3 2.22266e-07 0)
(3 8.13299e-07 0)
(2.99999 2.16508e-06 0)
(2.99998 5.99453e-06 0)
(2.99996 1.42863e-05 0)
(2.99989 3.75366e-05 0)
(2.99973 8.73393e-05 0)
(2.99935 0.000226409 0)
(2.99839 0.000529107 0)
(2.99609 0.00135359 0)
(2.9903 0.0032187 0)
(2.97601 0.00814053 0)
(2.93876 0.0202371 0)
(2.83729 0.0533675 0)
(2.54618 0.147843 0)
(1.77467 0.440083 0)
(1.15557 0.743949 0)
(1.04822 0.778898 0)
(1.05716 0.792032 0)
(1.0951 0.791356 0)
(1.13499 0.803259 0)
(1.174 0.82309 0)
(1.22343 0.842217 0)
(1.28657 0.855848 0)
(3 2.96975e-08 0)
(3 1.77767e-07 0)
(3 6.36462e-07 0)
(2.99999 1.73247e-06 0)
(2.99999 4.69048e-06 0)
(2.99997 1.14544e-05 0)
(2.99992 2.93402e-05 0)
(2.9998 7.02132e-05 0)
(2.99951 0.000177111 0)
(2.99881 0.000425124 0)
(2.99705 0.00106135 0)
(2.99278 0.0025822 0)
(2.98206 0.00642529 0)
(2.95474 0.0160315 0)
(2.88108 0.0415732 0)
(2.6723 0.11336 0)
(2.06916 0.332343 0)
(1.32484 0.75941 0)
(1.09195 0.808414 0)
(1.08771 0.819288 0)
(1.12127 0.815304 0)
(1.16751 0.815179 0)
(1.2088 0.827025 0)
(1.25461 0.840837 0)
(1.31073 0.85067 0)
(3 2.19677e-08 0)
(3 1.42479e-07 0)
(3 4.80906e-07 0)
(3 1.39076e-06 0)
(2.99999 3.56877e-06 0)
(2.99998 9.18864e-06 0)
(2.99994 2.23791e-05 0)
(2.99985 5.633e-05 0)
(2.99965 0.000136146 0)
(2.99913 0.000340053 0)
(2.99789 0.00082465 0)
(2.99477 0.00205583 0)
(2.98721 0.00502711 0)
(2.968 0.0126312 0)
(2.91774 0.0322518 0)
(2.77915 0.0868196 0)
(2.37418 0.24933 0)
(1.58308 0.675371 0)
(1.18262 0.814632 0)
(1.13523 0.834629 0)
(1.15263 0.837507 0)
(1.19694 0.830242 0)
(1.24159 0.833281 0)
(1.28468 0.84163 0)
(1.33457 0.848132 0)
(3 1.66686e-08 0)
(3 1.0845e-07 0)
(3 3.61323e-07 0)
(3 1.05514e-06 0)
(2.99999 2.67881e-06 0)
(2.99998 6.88428e-06 0)
(2.99996 1.68541e-05 0)
(2.9999 4.16855e-05 0)
(2.99974 0.000102581 0)
(2.99938 0.000248315 0)
(2.99848 0.000619851 0)
(2.99628 0.00148304 0)
(2.99087 0.0037266 0)
(2.97739 0.00903244 0)
(2.94269 0.0229936 0)
(2.84897 0.0597681 0)
(2.58124 0.166271 0)
(1.8803 0.487326 0)
(1.30731 0.804385 0)
(1.18567 0.844625 0)
(1.18663 0.858669 0)
(1.2228 0.851358 0)
(1.26971 0.844055 0)
(1.31272 0.845275 0)
(1.35813 0.848 0)
(3 1.24346e-08 0)
(3 8.05918e-08 0)
(3 2.71438e-07 0)
(3 7.83217e-07 0)
(2.99999 2.0063e-06 0)
(2.99999 5.14626e-06 0)
(2.99997 1.25477e-05 0)
(2.99993 3.13605e-05 0)
(2.99982 7.58804e-05 0)
(2.99956 0.000188203 0)
(2.99892 0.000456315 0)
(2.99736 0.0011275 0)
(2.9935 0.00275163 0)
(2.98402 0.00682002 0)
(2.95984 0.0169303 0)
(2.8956 0.0437 0)
(2.71576 0.118038 0)
(2.19447 0.345171 0)
(1.49401 0.788659 0)
(1.24225 0.864508 0)
(1.22232 0.877371 0)
(1.24424 0.872878 0)
(1.29004 0.859422 0)
(1.33652 0.853171 0)
(1.3805 0.851209 0)
(3 9.57613e-09 0)
(3 5.74799e-08 0)
(3 2.04986e-07 0)
(3 5.60504e-07 0)
(3 1.50983e-06 0)
(2.99999 3.70353e-06 0)
(2.99998 9.40034e-06 0)
(2.99995 2.26282e-05 0)
(2.99988 5.64977e-05 0)
(2.9997 0.000136308 0)
(2.99926 0.000337283 0)
(2.99819 0.000819622 0)
(2.99561 0.00201945 0)
(2.9892 0.00495062 0)
(2.97335 0.0123125 0)
(2.93231 0.0311553 0)
(2.82135 0.0828319 0)
(2.501 0.235458 0)
(1.78275 0.64509 0)
(1.35101 0.853431 0)
(1.27477 0.881262 0)
(1.27765 0.888471 0)
(1.3134 0.876502 0)
(1.35933 0.863902 0)
(1.40223 0.857542 0)
(3 6.47486e-09 0)
(3 4.23616e-08 0)
(3 1.41328e-07 0)
(3 4.11704e-07 0)
(3 1.04374e-06 0)
(2.99999 2.6904e-06 0)
(2.99999 6.49188e-06 0)
(2.99996 1.62786e-05 0)
(2.99991 3.90194e-05 0)
(2.99979 9.67443e-05 0)
(2.99949 0.000232824 0)
(2.99876 0.000572877 0)
(2.99694 0.00139079 0)
(2.99259 0.0034078 0)
(2.98163 0.0083597 0)
(2.95398 0.0208357 0)
(2.88013 0.0535715 0)
(2.6725 0.145681 0)
(2.09763 0.42485 0)
(1.49699 0.829792 0)
(1.32388 0.890657 0)
(1.31045 0.902159 0)
(1.3333 0.894424 0)
(1.37777 0.877003 0)
(1.42211 0.865886 0)
(3 4.64856e-09 0)
(3 2.93716e-08 0)
(3 1.01655e-07 0)
(3 2.84846e-07 0)
(3 7.48642e-07 0)
(3 1.87496e-06 0)
(2.99999 4.6313e-06 0)
(2.99998 1.14638e-05 0)
(2.99994 2.763e-05 0)
(2.99986 6.88906e-05 0)
(2.99966 0.0001639 0)
(2.99916 0.000411802 0)
(2.99797 0.000975775 0)
(2.995 0.00245796 0)
(2.98785 0.00588176 0)
(2.96975 0.0148314 0)
(2.92296 0.0372753 0)
(2.79541 0.0996053 0)
(2.42494 0.285373 0)
(1.74813 0.721121 0)
(1.40831 0.881795 0)
(1.35389 0.906083 0)
(1.35995 0.90967 0)
(1.39627 0.893712 0)
(1.44073 0.875546 0)
(3 3.26943e-09 0)
(3 2.04778e-08 0)
(3 7.02332e-08 0)
(3 1.98831e-07 0)
(3 5.17411e-07 0)
(3 1.29534e-06 0)
(2.99999 3.23563e-06 0)
(2.99998 7.79392e-06 0)
(2.99996 1.94887e-05 0)
(2.99991 4.61746e-05 0)
(2.99977 0.000116182 0)
(2.99944 0.000273158 0)
(2.99865 0.000689927 0)
(2.99668 0.00162393 0)
(2.99194 0.00409759 0)
(2.98008 0.00981756 0)
(2.95007 0.0249242 0)
(2.87013 0.0639898 0)
(2.64398 0.176638 0)
(2.05675 0.503575 0)
(1.53878 0.853429 0)
(1.40302 0.910163 0)
(1.39066 0.920832 0)
(1.41227 0.911294 0)
(1.45371 0.88823 0)
(3 2.18452e-09 0)
(3 1.41801e-08 0)
(3 4.7415e-08 0)
(3 1.37719e-07 0)
(3 3.49957e-07 0)
(3 8.9752e-07 0)
(3 2.181e-06 0)
(2.99999 5.4019e-06 0)
(2.99997 1.31178e-05 0)
(2.99994 3.192e-05 0)
(2.99985 7.83931e-05 0)
(2.99964 0.000188223 0)
(2.9991 0.000466824 0)
(2.99784 0.00111351 0)
(2.99468 0.00278327 0)
(2.98707 0.0066783 0)
(2.96781 0.0167672 0)
(2.91792 0.0422054 0)
(2.7816 0.112774 0)
(2.38855 0.324324 0)
(1.76293 0.760304 0)
(1.47469 0.902975 0)
(1.42749 0.924856 0)
(1.43285 0.925269 0)
(1.46515 0.904603 0)
(3 1.49856e-09 0)
(3 9.41977e-09 0)
(3 3.25966e-08 0)
(3 9.13791e-08 0)
(3 2.39641e-07 0)
(3 6.00102e-07 0)
(3 1.4765e-06 0)
(2.99999 3.64548e-06 0)
(2.99998 8.77452e-06 0)
(2.99996 2.17497e-05 0)
(2.9999 5.17839e-05 0)
(2.99976 0.000129316 0)
(2.99942 0.000305643 0)
(2.99861 0.00076691 0)
(2.99657 0.00181623 0)
(2.99173 0.00454975 0)
(2.97957 0.0109805 0)
(2.94893 0.0277262 0)
(2.86755 0.0715691 0)
(2.63691 0.198459 0)
(2.06599 0.550804 0)
(1.59947 0.871949 0)
(1.47533 0.926731 0)
(1.45975 0.933219 0)
(1.47455 0.919002 0)
(3 9.94609e-10 0)
(3 6.29822e-09 0)
(3 2.17486e-08 0)
(3 6.10063e-08 0)
(3 1.59681e-07 0)
(3 3.99142e-07 0)
(3 9.83014e-07 0)
(3 2.42136e-06 0)
(2.99999 5.81923e-06 0)
(2.99997 1.44533e-05 0)
(2.99994 3.41847e-05 0)
(2.99985 8.56296e-05 0)
(2.99963 0.000201237 0)
(2.9991 0.000505669 0)
(2.99783 0.00118849 0)
(2.9947 0.00298558 0)
(2.98708 0.00711125 0)
(2.96801 0.0178558 0)
(2.91868 0.0447588 0)
(2.78427 0.119441 0)
(2.40142 0.341813 0)
(1.81468 0.770514 0)
(1.54209 0.913549 0)
(1.49097 0.932218 0)
(1.4878 0.922342 0)
(3 6.71949e-10 0)
(3 4.06067e-09 0)
(3 1.44002e-08 0)
(3 3.93597e-08 0)
(3 1.05481e-07 0)
(3 2.56976e-07 0)
(3 6.51335e-07 0)
(3 1.54989e-06 0)
(2.99999 3.873e-06 0)
(2.99998 9.19416e-06 0)
(2.99996 2.27823e-05 0)
(2.9999 5.4434e-05 0)
(2.99977 0.000133726 0)
(2.99943 0.000321943 0)
(2.99864 0.000786069 0)
(2.99666 0.00190882 0)
(2.99195 0.00464743 0)
(2.98016 0.0114266 0)
(2.95057 0.0283775 0)
(2.87236 0.073495 0)
(2.65133 0.202638 0)
(2.11209 0.553207 0)
(1.66174 0.876935 0)
(1.52782 0.929649 0)
(1.50035 0.9169 0)
(3 4.23997e-10 0)
(3 2.65408e-09 0)
(3 9.08688e-09 0)
(3 2.56944e-08 0)
(3 6.66686e-08 0)
(3 1.6658e-07 0)
(3 4.12628e-07 0)
(3 9.97295e-07 0)
(3 2.46008e-06 0)
(2.99999 5.86401e-06 0)
(2.99998 1.45364e-05 0)
(2.99994 3.43681e-05 0)
(2.99985 8.54894e-05 0)
(2.99964 0.000201909 0)
(2.99915 0.000501645 0)
(2.99792 0.00118908 0)
(2.995 0.00294563 0)
(2.98774 0.0070826 0)
(2.96993 0.0175496 0)
(2.92386 0.0441229 0)
(2.79973 0.116739 0)
(2.44804 0.332626 0)
(1.87877 0.750346 0)
(1.58279 0.902091 0)
(1.50493 0.90273 0)
(3 2.59788e-10 0)
(3 1.69416e-09 0)
(3 5.63332e-09 0)
(3 1.63986e-08 0)
(3 4.12783e-08 0)
(3 1.06064e-07 0)
(3 2.55565e-07 0)
(3 6.31774e-07 0)
(3 1.52446e-06 0)
(2.99999 3.69219e-06 0)
(2.99998 9.00336e-06 0)
(2.99996 2.15022e-05 0)
(2.99991 5.30199e-05 0)
(2.99978 0.000125251 0)
(2.99946 0.00031128 0)
(2.9987 0.000732454 0)
(2.99686 0.00182533 0)
(2.99232 0.00432239 0)
(2.98128 0.010775 0)
(2.95328 0.026326 0)
(2.8799 0.0681307 0)
(2.67457 0.185849 0)
(2.16359 0.50855 0)
(1.68365 0.849129 0)
(1.49224 0.878243 0)
(3 1.56706e-10 0)
(3 1.01909e-09 0)
(3 3.43131e-09 0)
(3 9.8375e-09 0)
(3 2.50978e-08 0)
(3 6.385e-08 0)
(3 1.53336e-07 0)
(3 3.82173e-07 0)
(3 9.01848e-07 0)
(3 2.23851e-06 0)
(2.99999 5.26787e-06 0)
(2.99998 1.30316e-05 0)
(2.99994 3.074e-05 0)
(2.99986 7.55749e-05 0)
(2.99966 0.000179565 0)
(2.99918 0.000438043 0)
(2.99799 0.00105068 0)
(2.99519 0.00254653 0)
(2.98822 0.00617934 0)
(2.9712 0.0151166 0)
(2.92745 0.0379563 0)
(2.81078 0.0999306 0)
(2.48476 0.28467 0)
(1.87891 0.665249 0)
(1.45847 0.78809 0)
(3 9.53862e-11 0)
(3 5.6545e-10 0)
(3 2.03569e-09 0)
(3 5.44784e-09 0)
(3 1.47554e-08 0)
(3 3.53188e-08 0)
(3 8.91774e-08 0)
(3 2.10072e-07 0)
(3 5.16267e-07 0)
(3 1.22474e-06 0)
(2.99999 2.9504e-06 0)
(2.99998 7.09193e-06 0)
(2.99996 1.6774e-05 0)
(2.9999 4.09797e-05 0)
(2.99977 9.50503e-05 0)
(2.99942 0.000235504 0)
(2.99861 0.000539823 0)
(2.99659 0.0013454 0)
(2.99174 0.00309312 0)
(2.9796 0.00768083 0)
(2.94894 0.0183286 0)
(2.86749 0.0467914 0)
(2.64192 0.12542 0)
(2.07 0.348244 0)
(1.37758 0.614066 0)
(3 4.98402e-11 0)
(3 3.1617e-10 0)
(3 1.06303e-09 0)
(3 3.04186e-09 0)
(3 7.69787e-09 0)
(3 1.92943e-08 0)
(3 4.68584e-08 0)
(3 1.11371e-07 0)
(3 2.72901e-07 0)
(3 6.27818e-07 0)
(2.99999 1.56673e-06 0)
(2.99999 3.51647e-06 0)
(2.99997 8.89116e-06 0)
(2.99992 1.97094e-05 0)
(2.99982 5.0016e-05 0)
(2.99955 0.000110603 0)
(2.99892 0.00027893 0)
(2.99732 0.000622439 0)
(2.99349 0.00155035 0)
(2.98385 0.00354134 0)
(2.95958 0.00870871 0)
(2.89512 0.0211481 0)
(2.71609 0.0547606 0)
(2.21982 0.15197 0)
(1.28368 0.361614 0)
(3 2.36254e-11 0)
(3 1.68052e-10 0)
(3 5.24688e-10 0)
(3 1.60653e-09 0)
(3 3.80042e-09 0)
(3 1.01118e-08 0)
(3 2.26714e-08 0)
(3 5.80812e-08 0)
(3 1.28662e-07 0)
(3 3.2346e-07 0)
(3 7.23652e-07 0)
(2.99999 1.77213e-06 0)
(2.99997 4.04502e-06 0)
(2.99994 9.57455e-06 0)
(2.99984 2.26004e-05 0)
(2.99961 5.1149e-05 0)
(2.99904 0.000124866 0)
(2.99764 0.000272212 0)
(2.99416 0.000679887 0)
(2.98555 0.00147494 0)
(2.96346 0.00362052 0)
(2.90464 0.00833521 0)
(2.73828 0.0206131 0)
(2.25543 0.051313 0)
(1.17676 0.126164 0)
(3 1.18562e-11 0)
(3 8.63342e-11 0)
(3 2.68262e-10 0)
(3 8.22977e-10 0)
(3 1.92152e-09 0)
(3 5.18819e-09 0)
(3 1.11765e-08 0)
(3 2.9996e-08 0)
(3 6.18035e-08 0)
(3 1.67971e-07 0)
(3 3.39389e-07 0)
(2.99999 9.19962e-07 0)
(2.99998 1.88147e-06 0)
(2.99994 4.94634e-06 0)
(2.99985 1.05219e-05 0)
(2.99964 2.59317e-05 0)
(2.9991 5.92382e-05 0)
(2.99778 0.000134252 0)
(2.99449 0.000326511 0)
(2.98629 0.000718323 0)
(2.96526 0.0017485 0)
(2.90884 0.00406792 0)
(2.74836 0.0100755 0)
(2.27063 0.0250868 0)
(1.13711 0.0595927 0)
(3 8.68393e-12 0)
(3 3.80845e-11 0)
(3 1.68343e-10 0)
(3 3.64253e-10 0)
(3 1.18821e-09 0)
(3 2.25907e-09 0)
(3 7.12103e-09 0)
(3 1.24211e-08 0)
(3 4.06041e-08 0)
(3 6.71758e-08 0)
(3 2.2517e-07 0)
(2.99999 3.71655e-07 0)
(2.99998 1.21701e-06 0)
(2.99994 2.10588e-06 0)
(2.99986 6.54439e-06 0)
(2.99965 1.21179e-05 0)
(2.99913 3.42925e-05 0)
(2.99787 7.24089e-05 0)
(2.99465 0.000178836 0)
(2.98672 0.000423994 0)
(2.96624 0.00100698 0)
(2.91138 0.00249117 0)
(2.75483 0.00636351 0)
(2.28574 0.0170489 0)
(1.14666 0.045788 0)
(3 5.8153e-12 0)
(3 2.075e-11 0)
(3 1.11792e-10 0)
(3 1.94203e-10 0)
(3 7.92179e-10 0)
(3 1.22958e-09 0)
(3 4.69074e-09 0)
(3 6.94812e-09 0)
(3 2.61356e-08 0)
(3 3.91558e-08 0)
(3 1.41296e-07 0)
(2.99999 2.31777e-07 0)
(2.99998 7.40164e-07 0)
(2.99994 1.39699e-06 0)
(2.99986 3.87523e-06 0)
(2.99966 8.73855e-06 0)
(2.99915 1.93637e-05 0)
(2.9979 5.58437e-05 0)
(2.99479 0.000102274 0)
(2.98698 0.000324719 0)
(2.96695 0.000660987 0)
(2.91332 0.00186467 0)
(2.76 0.00478299 0)
(2.30119 0.0137276 0)
(1.16946 0.040339 0)
(3 1.30924e-12 0)
(3 2.40855e-11 0)
(3 4.43943e-11 0)
(3 2.26376e-10 0)
(3 3.20975e-10 0)
(3 1.42745e-09 0)
(3 1.72306e-09 0)
(3 8.44632e-09 0)
(3 8.72455e-09 0)
(3 4.75887e-08 0)
(3 4.61499e-08 0)
(2.99999 2.58654e-07 0)
(2.99998 2.72049e-07 0)
(2.99995 1.38338e-06 0)
(2.99986 1.67483e-06 0)
(2.99967 7.47355e-06 0)
(2.99917 1.14514e-05 0)
(2.99794 3.90037e-05 0)
(2.99487 8.04152e-05 0)
(2.98719 0.000217022 0)
(2.96751 0.000527416 0)
(2.91486 0.00140233 0)
(2.76456 0.00386045 0)
(2.31557 0.0113841 0)
(1.195 0.0354873 0)
(3 1.1271e-12 0)
(3 1.71018e-11 0)
(3 3.74432e-11 0)
(3 1.61413e-10 0)
(3 2.70085e-10 0)
(3 1.02836e-09 0)
(3 1.36614e-09 0)
(3 6.34248e-09 0)
(3 6.09438e-09 0)
(3 3.75401e-08 0)
(3 2.78898e-08 0)
(2.99999 2.10618e-07 0)
(2.99998 1.40233e-07 0)
(2.99995 1.17034e-06 0)
(2.99987 7.67161e-07 0)
(2.99967 6.45301e-06 0)
(2.99918 5.57549e-06 0)
(2.99796 3.3979e-05 0)
(2.99494 4.54939e-05 0)
(2.98735 0.000183837 0)
(2.96796 0.000364999 0)
(2.91605 0.00112875 0)
(2.76858 0.00303624 0)
(2.32817 0.00938703 0)
(1.21994 0.030143 0)
(3 3.43334e-12 0)
(3 6.44378e-12 0)
(3 6.11989e-11 0)
(3 5.96129e-11 0)
(3 4.09684e-10 0)
(3 3.69201e-10 0)
(3 2.31823e-09 0)
(3 1.93064e-09 0)
(3 1.23802e-08 0)
(3 1.08322e-08 0)
(3 6.11376e-08 0)
(2.99999 6.76063e-08 0)
(2.99998 2.88361e-07 0)
(2.99995 4.71477e-07 0)
(2.99987 1.27614e-06 0)
(2.99967 3.3805e-06 0)
(2.99919 5.77918e-06 0)
(2.99797 2.45148e-05 0)
(2.995 3.10013e-05 0)
(2.98746 0.000150836 0)
(2.96831 0.000257484 0)
(2.91706 0.000895071 0)
(2.77173 0.00235529 0)
(2.33921 0.0075869 0)
(1.2421 0.0246547 0)
(3 2.36294e-12 0)
(3 5.34104e-12 0)
(3 4.09486e-11 0)
(3 4.70193e-11 0)
(3 2.67368e-10 0)
(3 2.47806e-10 0)
(3 1.52965e-09 0)
(3 8.78244e-10 0)
(3 8.71069e-09 0)
(3 1.70464e-09 0)
(3 4.67745e-08 0)
(2.99999 3.19529e-09 0)
(2.99998 2.37172e-07 0)
(2.99995 4.00734e-08 0)
(2.99987 1.23243e-06 0)
(2.99967 6.33203e-07 0)
(2.9992 6.0403e-06 0)
(2.99798 9.20235e-06 0)
(2.99504 3.1798e-05 0)
(2.98754 7.98443e-05 0)
(2.96857 0.000222226 0)
(2.91787 0.000613966 0)
(2.77425 0.00186395 0)
(2.34835 0.00594093 0)
(1.26081 0.0194283 0)
(3 -3.99241e-13 0)
(3 1.02873e-11 0)
(3 -1.67341e-12 0)
(3 9.71533e-11 0)
(3 -2.87858e-12 0)
(3 5.17866e-10 0)
(3 2.42125e-11 0)
(3 2.37806e-09 0)
(3 6.14188e-10 0)
(3 7.8975e-09 0)
(3 1.09655e-08 0)
(2.99999 1.26488e-08 0)
(2.99998 1.15618e-07 0)
(2.99995 -1.24125e-07 0)
(2.99987 1.13301e-06 0)
(2.99967 -1.70232e-06 0)
(2.9992 8.97407e-06 0)
(2.99799 -1.11672e-05 0)
(2.99506 5.77337e-05 0)
(2.98762 -2.39615e-05 0)
(2.96876 0.000275319 0)
(2.9185 0.000307277 0)
(2.7763 0.0015694 0)
(2.35545 0.00451984 0)
(1.27559 0.0147764 0)
(3 -7.75308e-13 0)
(3 9.72387e-12 0)
(3 -8.44935e-12 0)
(3 9.3366e-11 0)
(3 -6.56677e-11 0)
(3 4.95319e-10 0)
(3 -4.39332e-10 0)
(3 2.29282e-09 0)
(3 -2.71408e-09 0)
(3 1.00881e-08 0)
(3 -1.35399e-08 0)
(2.99999 3.22177e-08 0)
(2.99998 -2.2314e-08 0)
(2.99995 2.19598e-08 0)
(2.99987 2.44816e-07 0)
(2.99968 -5.13582e-07 0)
(2.99919 4.21324e-06 0)
(2.99802 -6.65999e-06 0)
(2.99503 3.80112e-05 0)
(2.98772 -1.60986e-05 0)
(2.96886 0.000195276 0)
(2.91896 0.000251839 0)
(2.77807 0.00123521 0)
(2.3606 0.00353593 0)
(1.28688 0.0109304 0)
(3 9.33474e-13 0)
(3 -9.17986e-14 0)
(3 2.12699e-11 0)
(3 -5.03667e-12 0)
(3 1.32159e-10 0)
(3 -5.77862e-13 0)
(3 5.18885e-10 0)
(3 1.56834e-10 0)
(3 9.89478e-10 0)
(3 4.15684e-09 0)
(3 -9.0659e-09 0)
(2.99999 4.58139e-08 0)
(2.99998 -1.15985e-07 0)
(2.99995 4.01785e-07 0)
(2.99987 -9.61412e-07 0)
(2.99968 3.09671e-06 0)
(2.99919 -6.00209e-06 0)
(2.99802 2.03157e-05 0)
(2.99505 -2.73031e-05 0)
(2.98775 0.00010209 0)
(2.969 -2.3568e-05 0)
(2.91936 0.000411752 0)
(2.77937 0.000764922 0)
(2.36458 0.00275186 0)
(1.29537 0.00759326 0)
(3 1.32853e-13 0)
(3 6.62801e-13 0)
(3 5.37575e-12 0)
(3 3.2919e-12 0)
(3 4.0061e-11 0)
(3 3.01648e-11 0)
(3 9.03188e-11 0)
(3 2.16417e-10 0)
(3 -7.18149e-10 0)
(3 1.79981e-09 0)
(3 -9.9687e-09 0)
(2.99999 2.20171e-08 0)
(2.99998 -8.72191e-08 0)
(2.99995 1.80463e-07 0)
(2.99987 -5.43835e-07 0)
(2.99967 1.30818e-06 0)
(2.9992 -3.04792e-06 0)
(2.998 9.92325e-06 0)
(2.9951 -1.37712e-05 0)
(2.98773 5.24334e-05 0)
(2.96913 -2.32567e-06 0)
(2.91965 0.000226639 0)
(2.78018 0.000487889 0)
(2.36735 0.0016591 0)
(1.30079 0.00441769 0)
(3 -6.53838e-13 0)
(3 3.49984e-12 0)
(3 -1.15339e-11 0)
(3 3.4452e-11 0)
(3 -7.27955e-11 0)
(3 1.58194e-10 0)
(3 -4.19708e-10 0)
(3 6.54123e-10 0)
(3 -2.28976e-09 0)
(3 2.18345e-09 0)
(3 -8.07596e-09 0)
(2.99999 3.45191e-09 0)
(2.99998 -1.52186e-08 0)
(2.99995 -4.91854e-08 0)
(2.99987 1.19737e-07 0)
(2.99967 -5.48242e-07 0)
(2.9992 1.27744e-06 0)
(2.99801 -4.27813e-06 0)
(2.99509 1.02122e-05 0)
(2.98776 -1.75995e-05 0)
(2.96915 5.03018e-05 0)
(2.91979 3.43045e-06 0)
(2.78068 0.000226223 0)
(2.36853 0.000519949 0)
(1.30345 0.00144989 0)
(1.13177 1.00415 0)
(1.04368 0.715882 0)
(0.17659 0.455317 0)
(-0.430619 0.0359822 0)
(-0.525495 -0.0123461 0)
(-0.689052 -0.0238972 0)
(-0.747175 -0.0150165 0)
(-0.792478 0.00807332 0)
(-0.85378 0.0197998 0)
(-0.9196 0.0190687 0)
(-0.976756 0.012787 0)
(-1.02609 0.00732477 0)
(-1.07332 0.00431317 0)
(-1.12111 0.00163417 0)
(-1.16948 0.000681031 0)
(-1.20655 0.00341056 0)
(-1.22412 0.00362831 0)
(-1.22947 0.00181343 0)
(-1.22539 -0.000875219 0)
(-1.20536 -0.00437793 0)
(-1.16624 -0.00810642 0)
(-1.11106 -0.0118332 0)
(-1.04494 -0.0150464 0)
(-0.973335 -0.0172601 0)
(-0.90029 -0.0185171 0)
(-0.828005 -0.019152 0)
(-0.757714 -0.0193815 0)
(-0.690317 -0.0193507 0)
(-0.62585 -0.0191277 0)
(-0.564017 -0.0189389 0)
(-0.504274 -0.0189912 0)
(-0.446262 -0.0192336 0)
(-0.389362 -0.019962 0)
(-0.33245 -0.0215911 0)
(-0.277067 -0.0227422 0)
(-0.223263 -0.0233246 0)
(-0.171146 -0.0236159 0)
(-0.120266 -0.0240537 0)
(-0.0704554 -0.024679 0)
(-0.0236112 -0.0265754 0)
(0.0288042 -0.0270343 0)
(0.0777884 -0.0251252 0)
(0.121984 -0.0233253 0)
(0.165299 -0.02226 0)
(0.20689 -0.0213498 0)
(0.245512 -0.0202973 0)
(0.282499 -0.0195686 0)
(0.320431 -0.0193995 0)
(0.358516 -0.0192288 0)
(0.395099 -0.0185362 0)
(0.43034 -0.0178263 0)
(0.464434 -0.0171958 0)
(0.497568 -0.0166253 0)
(0.529843 -0.0160557 0)
(0.561338 -0.0155026 0)
(0.59206 -0.014957 0)
(0.622059 -0.0144233 0)
(0.651372 -0.013893 0)
(0.680032 -0.0133812 0)
(0.708072 -0.0128619 0)
(0.73554 -0.0123635 0)
(0.762445 -0.0118605 0)
(0.788841 -0.0113747 0)
(0.814741 -0.0108911 0)
(0.840183 -0.0104236 0)
(0.865182 -0.0099631 0)
(0.889774 -0.00951546 0)
(0.913972 -0.00908031 0)
(0.9378 -0.00865542 0)
(0.961281 -0.00824377 0)
(0.984424 -0.00784374 0)
(1.00725 -0.00745448 0)
(1.02976 -0.00707722 0)
(1.05198 -0.00670939 0)
(1.07389 -0.00635166 0)
(1.0955 -0.00600317 0)
(1.11681 -0.0056631 0)
(1.13781 -0.00533233 0)
(1.1585 -0.00500996 0)
(1.17887 -0.00469744 0)
(1.19891 -0.00439343 0)
(1.21863 -0.00409971 0)
(1.23802 -0.00381411 0)
(1.25708 -0.00353859 0)
(1.27582 -0.00326947 0)
(1.29424 -0.0030107 0)
(1.31234 -0.00275359 0)
(1.33011 -0.00250279 0)
(1.34756 -0.0022538 0)
(1.36466 -0.00200572 0)
(1.38139 -0.00174493 0)
(1.39772 -0.00148189 0)
(1.4136 -0.00121508 0)
(1.42894 -0.000958845 0)
(1.44364 -0.000686352 0)
(1.45748 -0.000378996 0)
(1.47014 -1.3091e-05 0)
(1.48108 0.000441855 0)
(1.48937 0.0010334 0)