/*--------------------------------*- C++ -*----------------------------------*\
  =========                 |
  \\      /  F ield         | OpenFOAM: The Open Source CFD Toolbox
   \\    /   O peration     | Website:  https://openfoam.org
    \\  /    A nd           | Version:  13
     \\/     M anipulation  |
\*---------------------------------------------------------------------------*/
FoamFile
{
    format      ascii;
    class       volScalarField;
    location    "0.5";
    object      Ma;
}
// * * * * * * * * * * * * * * * * * * * * * * * * * * * * * * * * * * * * * //

dimensions      [];

internalField   nonuniform List<scalar> 
5250
(
3.00001
3.00001
3
2.99999
2.99997
2.99991
2.99979
2.9994
2.99862
2.99605
2.99098
2.97493
2.9395
2.83907
2.58835
1.99875
0.987823
0.320381
0.164399
0.253974
0.241119
0.173915
0.120474
0.0646646
0.0312755
3.00001
3.00001
3
2.99999
2.99997
2.99992
2.9998
2.99941
2.99865
2.99612
2.99115
2.97539
2.9406
2.84195
2.59548
2.01311
1.00728
0.333315
0.168619
0.258592
0.24672
0.181967
0.132468
0.08441
0.0583068
3.00001
3.00001
3
2.99999
2.99998
2.99992
2.9998
2.99944
2.99869
2.99629
2.99146
2.9763
2.94291
2.84788
2.61059
2.0443
1.05173
0.36181
0.179868
0.269889
0.261168
0.201444
0.158101
0.118679
0.0974605
3.00001
3.00001
3
3
2.99998
2.99993
2.99981
2.99947
2.99876
2.99651
2.99194
2.97764
2.94627
2.85669
2.63313
2.0921
1.12226
0.403909
0.197558
0.287348
0.283661
0.229886
0.192807
0.159536
0.140625
3.00001
3.00001
3
3
2.99998
2.99993
2.99982
2.99951
2.99885
2.99677
2.99255
2.97933
2.95052
2.86792
2.66227
2.15591
1.22023
0.457953
0.222236
0.310313
0.312309
0.264509
0.233491
0.204686
0.187173
3.00001
3.00001
3
3
2.99998
2.99994
2.99984
2.99955
2.99894
2.99707
2.99322
2.98127
2.95534
2.88098
2.69664
2.23505
1.34732
0.524569
0.254081
0.338657
0.346218
0.304477
0.280182
0.255323
0.239918
3.00001
3.00001
3
3
2.99998
2.99994
2.99985
2.9996
2.99903
2.99737
2.99386
2.98329
2.96022
2.89473
2.73341
2.3252
1.50052
0.602567
0.29282
0.373199
0.384201
0.349492
0.333442
0.313573
0.302433
3.00001
3.00001
3
3
2.99999
2.99995
2.99986
2.99965
2.99911
2.99769
2.99439
2.98524
2.96433
2.90714
2.7662
2.41136
1.65976
0.691818
0.343701
0.413553
0.424288
0.399947
0.393792
0.381192
0.380135
3.00001
3.00001
3.00001
3
2.99999
2.99996
2.99988
2.99969
2.99921
2.99799
2.99498
2.98708
2.96819
2.91829
2.79338
2.47955
1.7815
0.804116
0.414641
0.455355
0.463003
0.4559
0.461811
0.463283
0.485736
3.00001
3.00001
3.00001
3
2.99999
2.99997
2.9999
2.99974
2.99932
2.99828
2.9957
2.98892
2.97265
2.92968
2.82225
2.54794
1.92683
0.955192
0.506151
0.491361
0.502575
0.516762
0.537929
0.571413
0.660403
3.00001
3.00001
3.00001
3
2.99999
2.99997
2.99992
2.99979
2.99944
2.99858
2.99644
2.99076
2.9773
2.94103
2.85179
2.61842
2.07919
1.14195
0.612206
0.526927
0.548458
0.581017
0.624477
0.701781
0.859828
3.00001
3.00001
3.00001
3
3
2.99998
2.99994
2.99982
2.99959
2.99879
2.99732
2.9923
2.98224
2.9519
2.88129
2.69052
2.23239
1.37918
0.737425
0.574974
0.603027
0.647469
0.707021
0.807421
0.978741
3.00001
3.00001
3.00001
3.00001
3
2.99999
2.99995
2.99988
2.99964
2.99917
2.9977
2.99455
2.98548
2.96447
2.90751
2.76498
2.40193
1.67495
0.875456
0.636989
0.668466
0.71123
0.778502
0.88124
1.03132
3.00001
3.00001
3.00001
3.00001
3
2.99999
2.99997
2.9999
2.99974
2.99934
2.99829
2.99576
2.9889
2.97277
2.92938
2.82146
2.54405
1.93439
1.03962
0.718743
0.735721
0.770682
0.835519
0.935541
1.06574
3.00001
3.00001
3.00001
3.00001
3
3
2.99998
2.99993
2.99982
2.99947
2.99883
2.99659
2.99228
2.9786
2.94869
2.86442
2.65623
2.15773
1.28624
0.843609
0.795866
0.823704
0.879595
0.972165
1.08718
3.00001
3.00001
3.00001
3.00001
3
3
2.99999
2.99995
2.99987
2.99965
2.99914
2.99766
2.99448
2.98489
2.96381
2.90382
2.75667
2.38017
1.64377
1.00407
0.858356
0.874978
0.920743
1.0012
1.10298
3.00001
3.00001
3.00001
3.00001
3.00001
3
2.99999
2.99997
2.99991
2.99977
2.99937
2.99847
2.99597
2.98999
2.9744
2.93522
2.83423
2.57891
2.01489
1.20331
0.943191
0.934249
0.967572
1.03131
1.12167
3.00001
3.00001
3.00001
3.00001
3.00001
3
3
2.99998
2.99994
2.99984
2.99959
2.99897
2.99726
2.99341
2.98224
2.95698
2.88662
2.71241
2.28445
1.50103
1.073
0.99747
1.0179
1.06461
1.13881
3.00001
3.00001
3.00001
3.00001
3.00001
3.00001
3
2.99999
2.99997
2.9999
2.99975
2.9993
2.99838
2.99544
2.98956
2.97127
2.9311
2.81875
2.54605
1.94513
1.26302
1.07988
1.07522
1.10439
1.15903
3.00001
3.00001
3.00001
3.00001
3.00001
3.00001
3
3
2.99998
2.99994
2.99983
2.9996
2.99887
2.99743
2.99272
2.98325
2.95428
2.8881
2.70815
2.28545
1.548
1.19792
1.13417
1.14861
1.18897
3.00001
3.00001
3.00001
3.00001
3.00001
3.00001
3.00001
3
2.99999
2.99997
2.99991
2.99975
2.99936
2.99836
2.99594
2.9894
2.9741
2.93265
2.83104
2.571
2.00254
1.38445
1.21655
1.20546
1.23095
3.00001
3.00001
3.00001
3.00001
3.00001
3.00001
3.00001
3
3
2.99998
2.99995
2.99986
2.99964
2.99905
2.99761
2.99393
2.98445
2.961
2.89967
2.74476
2.36454
1.69285
1.33774
1.2669
1.27585
3.00001
3.00001
3.00001
3.00001
3.00001
3.00001
3.00001
3.00001
3
3
2.99997
2.99993
2.99979
2.9995
2.99862
2.99665
2.99128
2.97825
2.9445
2.85973
2.64605
2.15907
1.55861
1.36389
1.33227
3.00001
3.00001
3.00001
3.00001
3.00001
3.00001
3.00001
3.00001
3.00001
3
2.99999
2.99996
2.9999
2.99971
2.99934
2.99806
2.9957
2.9877
2.97146
2.92291
2.80894
2.51273
1.93508
1.49657
1.40394
3.00001
3.00001
3.00001
3.00001
3.00001
3.00001
3.00001
3.00001
3.00001
3
3
2.99998
2.99995
2.99985
2.99965
2.99903
2.99768
2.99379
2.98468
2.96034
2.89929
2.74344
2.36254
1.77822
1.51641
3.00001
3.00001
3.00001
3.00001
3.00001
3.00001
3.00001
3.00001
3.00001
3.00001
3
3
2.99998
2.99994
2.99982
2.99955
2.99879
2.99701
2.99226
2.98045
2.95038
2.87409
2.68276
2.24265
1.74344
3.00001
3.00001
3.00001
3.00001
3.00001
3.00001
3.00001
3.00001
3.00001
3.00001
3.00001
3
2.99999
2.99997
2.99992
2.99979
2.99945
2.99856
2.99643
2.99056
2.97714
2.9396
2.85045
2.61734
2.14138
3.00001
3.00001
3.00001
3.00001
3.00001
3.00001
3.00001
3.00001
3.00001
3.00001
3.00001
3.00001
3
2.99999
2.99997
2.9999
2.99977
2.99931
2.99847
2.99557
2.98983
2.97201
2.93195
2.82166
2.55374
3.00001
3.00001
3.00001
3.00001
3.00001
3.00001
3.00001
3.00001
3.00001
3.00001
3.00001
3.00001
3.00001
3
2.99999
2.99996
2.99991
2.99972
2.99933
2.99813
2.99552
2.98793
2.97024
2.92177
2.80356
3.00001
3.00001
3.00001
3.00001
3.00001
3.00001
3.00001
3.00001
3.00001
3.00001
3.00001
3.00001
3.00001
3.00001
3
2.99999
2.99996
2.99989
2.99972
2.99925
2.99817
2.99494
2.98801
2.96696
2.91947
3.00001
3.00001
3.00001
3.00001
3.00001
3.00001
3.00001
3.00001
3.00001
3.00001
3.00001
3.00001
3.00001
3.00001
3.00001
3
2.99999
2.99997
2.99989
2.99974
2.99923
2.9982
2.99497
2.98784
2.96736
3.00001
3.00001
3.00001
3.00001
3.00001
3.00001
3.00001
3.00001
3.00001
3.00001
3.00001
3.00001
3.00001
3.00001
3.00001
3.00001
3
2.99999
2.99997
2.9999
2.99975
2.99931
2.99823
2.99542
2.98813
3.00001
3.00001
3.00001
3.00001
3.00001
3.00001
3.00001
3.00001
3.00001
3.00001
3.00001
3.00001
3.00001
3.00001
3.00001
3.00001
3.00001
3
3
2.99997
2.99992
2.99975
2.99944
2.9983
2.99623
3.00001
3.00001
3.00001
3.00001
3.00001
3.00001
3.00001
3.00001
3.00001
3.00001
3.00001
3.00001
3.00001
3.00001
3.00001
3.00001
3.00001
3.00001
3
3
2.99998
2.99994
2.9998
2.99953
2.99863
3.00001
3.00001
3.00001
3.00001
3.00001
3.00001
3.00001
3.00001
3.00001
3.00001
3.00001
3.00001
3.00001
3.00001
3.00001
3.00001
3.00001
3.00001
3.00001
3.00001
3
2.99999
2.99995
2.99987
2.99959
3.00001
3.00001
3.00001
3.00001
3.00001
3.00001
3.00001
3.00001
3.00001
3.00001
3.00001
3.00001
3.00001
3.00001
3.00001
3.00001
3.00001
3.00001
3.00001
3.00001
3.00001
3
2.99999
2.99997
2.9999
3.00001
3.00001
3.00001
3.00001
3.00001
3.00001
3.00001
3.00001
3.00001
3.00001
3.00001
3.00001
3.00001
3.00001
3.00001
3.00001
3.00001
3.00001
3.00001
3.00001
3.00001
3.00001
3
3
2.99998
3.00001
3.00001
3.00001
3.00001
3.00001
3.00001
3.00001
3.00001
3.00001
3.00001
3.00001
3.00001
3.00001
3.00001
3.00001
3.00001
3.00001
3.00001
3.00001
3.00001
3.00001
3.00001
3.00001
3.00001
3
3.00001
3.00001
3.00001
3.00001
3.00001
3.00001
3.00001
3.00001
3.00001
3.00001
3.00001
3.00001
3.00001
3.00001
3.00001
3.00001
3.00001
3.00001
3.00001
3.00001
3.00001
3.00001
3.00001
3.00001
3.00001
3.00001
3.00001
3.00001
3.00001
3.00001
3.00001
3.00001
3.00001
3.00001
3.00001
3.00001
3.00001
3.00001
3.00001
3.00001
3.00001
3.00001
3.00001
3.00001
3.00001
3.00001
3.00001
3.00001
3.00001
3.00001
3.00001
3.00001
3.00001
3.00001
3.00001
3.00001
3.00001
3.00001
3.00001
3.00001
3.00001
3.00001
3.00001
3.00001
3.00001
3.00001
3.00001
3.00001
3.00001
3.00001
3.00001
3.00001
3.00001
3.00001
3.00001
3.00001
3.00001
3.00001
3.00001
3.00001
3.00001
3.00001
3.00001
3.00001
3.00001
3.00001
3.00001
3.00001
3.00001
3.00001
3.00001
3.00001
3.00001
3.00001
3.00001
3.00001
3.00001
3.00001
3.00001
3.00001
3.00001
3.00001
3.00001
3.00001
3.00001
3.00001
3.00001
3.00001
3.00001
3.00001
3.00001
3.00001
3.00001
3.00001
3.00001
3.00001
3.00001
3.00001
3.00001
3.00001
3.00001
3.00001
3.00001
3.00001
3.00001
3.00001
3.00001
3.00001
3.00001
3.00001
3.00001
3.00001
3.00001
3.00001
3.00001
3.00001
3.00001
3.00001
3.00001
3.00001
3.00001
3.00001
3.00001
3.00001
3.00001
3.00001
3.00001
3.00001
3.00001
3.00001
3.00001
3.00001
3.00001
3.00001
3.00001
3.00001
3.00001
3.00001
3.00001
3.00001
3.00001
3.00001
3.00001
3.00001
3.00001
3.00001
3.00001
3.00001
3.00001
3.00001
3.00001
3.00001
3.00001
3.00001
3.00001
3.00001
3.00001
3.00001
3.00001
3.00001
3.00001
3.00001
3.00001
3.00001
3.00001
3.00001
3.00001
3.00001
3.00001
3.00001
3.00001
3.00001
3.00001
3.00001
3.00001
3.00001
3.00001
3.00001
3.00001
3.00001
3.00001
3.00001
3.00001
3.00001
3.00001
3.00001
3.00001
3.00001
3.00001
3.00001
3.00001
3.00001
3.00001
3.00001
3.00001
3.00001
3.00001
3.00001
3.00001
3.00001
3.00001
3.00001
3.00001
3.00001
3.00001
3.00001
3.00001
3.00001
3.00001
3.00001
3.00001
3.00001
3.00001
3.00001
3.00001
3.00001
3.00001
3.00001
3.00001
3.00001
3.00001
3.00001
3.00001
3.00001
3.00001
3.00001
3.00001
3.00001
3.00001
3.00001
3.00001
3.00001
3.00001
3.00001
3.00001
3.00001
3.00001
3.00001
3.00001
3.00001
3.00001
3.00001
3.00001
3.00001
3.00001
3.00001
3.00001
3.00001
3.00001
3.00001
3.00001
3.00001
3.00001
3.00001
3.00001
3.00001
3.00001
3.00001
3.00001
3.00001
3.00001
3.00001
3.00001
3.00001
3.00001
3.00001
3.00001
3.00001
3.00001
3.00001
3.00001
3.00001
3.00001
3.00001
3.00001
3.00001
3.00001
3.00001
3.00001
3.00001
1.11405
1.33
1.41836
1.40952
1.3583
1.30386
1.25426
1.23072
1.23473
1.24631
1.2629
1.28615
1.30834
1.32521
1.34042
1.35604
1.37296
1.39139
1.41115
1.43172
1.45235
1.47232
1.49139
1.5097
1.52752
1.54508
1.56262
1.58017
1.59734
1.61347
1.62801
1.64047
1.65049
1.65853
1.66554
1.67083
1.67417
1.67737
1.6812
1.68601
1.69151
1.69751
1.70593
1.72194
1.75129
1.78977
1.83581
1.88893
1.94828
2.0126
2.08041
2.1503
2.22084
2.29065
2.35845
2.42315
2.48385
2.53994
2.59103
2.63697
2.67787
2.71392
2.74546
2.7729
2.7968
2.81786
2.83677
2.85418
2.87055
2.88615
2.90113
2.91548
2.92918
2.94208
2.95389
2.96429
2.97304
2.98025
2.98628
2.99167
2.99694
3.00063
3.00413
3.00652
3.00734
3.00714
3.00637
3.00534
3.00429
3.00338
3.00251
3.00175
3.0012
3.0008
3.00053
3.00034
3.00021
3.00013
3.00008
3.00005
1.13853
1.26192
1.34273
1.40091
1.45809
1.51329
1.55168
1.56442
1.56643
1.56611
1.56648
1.56842
1.57424
1.58652
1.60363
1.62068
1.63685
1.65269
1.6686
1.68442
1.69992
1.7151
1.73004
1.7447
1.75886
1.77243
1.78554
1.79847
1.81146
1.82457
1.83767
1.85027
1.86165
1.8711
1.87835
1.88385
1.8884
1.89228
1.89485
1.89631
1.89848
1.90145
1.90471
1.90958
1.92029
1.94108
1.97239
2.01019
2.05407
2.10339
2.15739
2.21491
2.27467
2.33539
2.39589
2.4552
2.51248
2.56703
2.61821
2.66549
2.70848
2.74701
2.78115
2.81119
2.8375
2.86045
2.88043
2.89788
2.9133
2.92721
2.93999
2.95184
2.96274
2.97254
2.98105
2.98809
2.99362
2.99785
3.00116
3.00399
3.00641
3.00913
3.01147
3.01216
3.01165
3.01042
3.00887
3.00733
3.00592
3.00447
3.00323
3.00229
3.0016
3.0011
3.00074
3.00049
3.00032
3.00021
3.00013
3.00009
1.15523
1.25906
1.35783
1.45653
1.5518
1.63395
1.69513
1.72649
1.73409
1.73522
1.7334
1.73114
1.73413
1.73893
1.74701
1.75972
1.77549
1.79171
1.80732
1.82214
1.83619
1.84974
1.86274
1.87525
1.88726
1.89898
1.91037
1.92147
1.93242
1.94315
1.95361
1.96406
1.97463
1.98458
1.99296
2.00015
2.00684
2.01258
2.01724
2.02099
2.02417
2.02719
2.03017
2.03464
2.04338
2.06032
2.08608
2.11837
2.15682
2.20083
2.24962
2.30214
2.35724
2.4137
2.47037
2.52621
2.58034
2.63203
2.68056
2.72532
2.76572
2.80147
2.83249
2.85903
2.8815
2.90045
2.91646
2.93007
2.94177
2.95205
2.96135
2.96999
2.97801
2.98522
2.99136
2.99626
2.99992
3.00261
3.0047
3.00648
3.00816
3.01089
3.01259
3.01279
3.01197
3.01055
3.0089
3.00732
3.00585
3.00435
3.00313
3.00221
3.00154
3.00105
3.0007
3.00046
3.0003
3.00019
3.00012
3.00008
1.18352
1.28688
1.3844
1.47741
1.56248
1.63792
1.70056
1.7513
1.79192
1.81919
1.83727
1.84535
1.84836
1.85113
1.85346
1.85798
1.86533
1.8767
1.89252
1.90981
1.92604
1.9409
1.95401
1.96632
1.97788
1.98906
1.99971
2.01006
2.02021
2.03025
2.04015
2.05011
2.06063
2.07146
2.08143
2.09029
2.09861
2.10591
2.11177
2.11614
2.11952
2.12253
2.12546
2.12962
2.13804
2.15521
2.18279
2.21771
2.25906
2.30575
2.35642
2.40956
2.46371
2.51756
2.56997
2.62003
2.66703
2.71052
2.75028
2.78624
2.8184
2.84678
2.87143
2.89252
2.91039
2.92552
2.93841
2.94955
2.95936
2.96813
2.97606
2.98332
2.99003
2.99613
3.00136
3.00544
3.00829
3.0101
3.01117
3.01183
3.01322
3.0153
3.01598
3.0154
3.01397
3.01209
3.01013
3.00832
3.00648
3.00476
3.00345
3.00246
3.00172
3.00119
3.00081
3.00054
3.00035
3.00023
3.00015
3.0001
1.1983
1.29761
1.38898
1.47445
1.55547
1.63086
1.69925
1.76217
1.81858
1.86576
1.90123
1.92446
1.93328
1.93784
1.93952
1.94075
1.94454
1.95075
1.95962
1.97199
1.98709
2.00171
2.01618
2.02904
2.04109
2.05217
2.06268
2.07273
2.08274
2.0928
2.10273
2.11272
2.12325
2.13422
2.14462
2.15434
2.16389
2.17255
2.1796
2.18498
2.18943
2.19382
2.19981
2.21096
2.22975
2.25509
2.28661
2.32358
2.36508
2.41
2.45716
2.50534
2.55348
2.60069
2.64622
2.68946
2.72989
2.76713
2.801
2.83146
2.8586
2.88253
2.90331
2.92104
2.93592
2.94829
2.9586
2.96736
2.97501
2.98189
2.98821
2.99403
2.99932
3.00396
3.00779
3.0106
3.01232
3.01314
3.0133
3.0138
3.01491
3.01649
3.01671
3.01577
3.01409
3.01207
3.01006
3.00819
3.00625
3.00458
3.0033
3.00234
3.00163
3.00112
3.00075
3.0005
3.00033
3.00021
3.00013
3.00009
1.2082
1.30586
1.39428
1.47616
1.55253
1.62436
1.69325
1.75676
1.81417
1.8651
1.90719
1.94108
1.967
1.98456
1.99495
2.00208
2.00689
2.01184
2.01769
2.02553
2.03629
2.04897
2.06229
2.07602
2.08929
2.10225
2.1147
2.12626
2.13708
2.14772
2.15832
2.16889
2.18007
2.192
2.20314
2.21317
2.22289
2.23236
2.24079
2.24779
2.25453
2.26331
2.27595
2.29399
2.31807
2.34787
2.38251
2.42097
2.46227
2.50536
2.54922
2.59294
2.63573
2.67704
2.71651
2.75363
2.78801
2.81933
2.84743
2.87231
2.89415
2.91321
2.92971
2.94381
2.95566
2.9655
2.97366
2.98056
2.98663
2.99221
2.99748
3.00242
3.00695
3.0109
3.01408
3.01624
3.01721
3.01732
3.01734
3.01738
3.01791
3.01901
3.01877
3.01737
3.01529
3.01298
3.01079
3.00865
3.00649
3.00477
3.00345
3.00246
3.00173
3.00119
3.00081
3.00054
3.00036
3.00023
3.00015
3.0001
1.21637
1.30774
1.39337
1.47339
1.54855
1.61959
1.68736
1.75148
1.81111
1.86432
1.91118
1.94991
1.98265
2.0101
2.03266
2.05109
2.06504
2.07505
2.08286
2.08903
2.09526
2.10254
2.11171
2.12268
2.13465
2.14718
2.15971
2.17163
2.1832
2.19461
2.2063
2.21794
2.22979
2.24211
2.25353
2.26339
2.27301
2.28324
2.29419
2.3054
2.31746
2.33202
2.35061
2.37446
2.40359
2.43715
2.47392
2.51257
2.5521
2.59159
2.63083
2.66887
2.70553
2.74042
2.77311
2.80352
2.83178
2.85787
2.88148
2.90229
2.92039
2.9361
2.94964
2.96123
2.97102
2.97921
2.986
2.9917
2.99668
3.00126
3.00564
3.00986
3.01372
3.01693
3.01921
3.02023
3.0202
3.02004
3.01952
3.01919
3.01948
3.02014
3.01939
3.01762
3.01532
3.01291
3.01067
3.00839
3.00625
3.00458
3.0033
3.00234
3.00164
3.00112
3.00076
3.0005
3.00033
3.00021
3.00014
3.00009
1.2241
1.31038
1.39297
1.47107
1.54536
1.61615
1.68272
1.74505
1.80208
1.85412
1.90037
1.9425
1.98028
2.01499
2.04675
2.07416
2.09723
2.1155
2.12889
2.13908
2.14733
2.15449
2.16173
2.1699
2.17914
2.18879
2.19909
2.21053
2.22251
2.23506
2.24793
2.26091
2.27355
2.28623
2.29878
2.3103
2.32168
2.33451
2.34982
2.3671
2.38556
2.40595
2.42947
2.45711
2.48877
2.52348
2.55997
2.59697
2.63355
2.66906
2.7032
2.73583
2.76684
2.7961
2.82345
2.84869
2.87179
2.89289
2.91204
2.92849
2.94276
2.95598
2.96715
2.97624
2.98387
2.9903
2.99578
3.00045
3.00453
3.00826
3.01192
3.01561
3.01913
3.02197
3.02353
3.02364
3.02359
3.02294
3.0221
3.02157
3.02192
3.02191
3.02057
3.0184
3.01584
3.0133
3.01091
3.00843
3.00627
3.0046
3.00333
3.00237
3.00166
3.00114
3.00078
3.00052
3.00034
3.00022
3.00014
3.0001
1.23521
1.31259
1.39121
1.46746
1.54011
1.60883
1.67405
1.7345
1.79077
1.84167
1.88867
1.93234
1.97395
2.01383
2.05091
2.08497
2.11462
2.14006
2.16166
2.17899
2.19351
2.20566
2.21492
2.22254
2.22943
2.23657
2.24414
2.25285
2.26294
2.27454
2.28705
2.30018
2.31336
2.32672
2.34078
2.35534
2.37049
2.38779
2.40791
2.4307
2.45506
2.48077
2.50858
2.53887
2.57144
2.60566
2.64047
2.67484
2.7079
2.73913
2.76823
2.79535
2.8207
2.84458
2.86709
2.88779
2.90654
2.92347
2.93865
2.95206
2.96349
2.97286
2.98101
2.98894
2.99525
3.00005
3.00434
3.00823
3.01172
3.01485
3.01782
3.02078
3.02361
3.0258
3.02654
3.02685
3.0263
3.02516
3.02397
3.02319
3.02351
3.0228
3.02099
3.01851
3.01578
3.01318
3.01066
3.00808
3.00601
3.0044
3.00317
3.00225
3.00157
3.00108
3.00073
3.00049
3.00032
3.00021
3.00013
3.00009
1.25131
1.32319
1.39426
1.46583
1.53551
1.60178
1.66405
1.72209
1.77631
1.82715
1.87554
1.92163
1.96627
2.00852
2.04839
2.08463
2.11782
2.1478
2.1745
2.199
2.21972
2.23692
2.2514
2.26254
2.27115
2.27915
2.2868
2.29482
2.30401
2.31442
2.32599
2.3389
2.353
2.36801
2.38468
2.40333
2.42383
2.44622
2.47092
2.49762
2.52592
2.55491
2.5846
2.61524
2.64654
2.67852
2.71057
2.74193
2.7718
2.79946
2.82421
2.84637
2.86727
2.88695
2.90537
2.92238
2.93769
2.95122
2.96311
2.97355
2.98254
2.98996
2.99583
3.00081
3.00589
3.00973
3.01265
3.01566
3.01866
3.02139
3.02382
3.02599
3.02774
3.02861
3.02942
3.02969
3.0288
3.02739
3.02604
3.02519
3.02513
3.02387
3.02162
3.01882
3.01592
3.0132
3.01048
3.00789
3.00586
3.00429
3.00309
3.0022
3.00154
3.00106
3.00072
3.00048
3.00032
3.00021
3.00013
3.00009
1.27472
1.33663
1.40406
1.46974
1.53398
1.59642
1.65574
1.71156
1.7641
1.81422
1.86236
1.90942
1.95487
1.99865
2.03969
2.07794
2.11356
2.14671
2.17801
2.20656
2.23286
2.25613
2.27558
2.29267
2.30699
2.31899
2.3305
2.34154
2.3523
2.36402
2.37667
2.39032
2.40582
2.42299
2.44145
2.46219
2.48563
2.51112
2.53774
2.56522
2.59411
2.62392
2.65388
2.68345
2.71252
2.7416
2.77071
2.79919
2.82603
2.85001
2.8705
2.88885
2.90579
2.92144
2.93609
2.94977
2.96224
2.97333
2.9829
2.99099
2.99786
3.00355
3.00808
3.01162
3.0147
3.01786
3.0199
3.0222
3.02492
3.0276
3.02983
3.03142
3.03203
3.03204
3.03234
3.03198
3.03066
3.02893
3.02744
3.0264
3.02604
3.02437
3.02173
3.01867
3.01567
3.01286
3.01
3.0075
3.00556
3.00406
3.00292
3.00206
3.00144
3.00099
3.00067
3.00045
3.00029
3.00019
3.00012
3.00008
1.30695
1.35672
1.41636
1.47823
1.53873
1.596
1.65169
1.70497
1.75596
1.80538
1.85349
1.90032
1.94535
1.98855
2.02928
2.06839
2.10487
2.14077
2.17411
2.20652
2.23603
2.26308
2.28772
2.30949
2.32945
2.34818
2.36478
2.38131
2.3972
2.41235
2.42826
2.44507
2.46259
2.48177
2.50212
2.52388
2.54823
2.57498
2.6022
2.62938
2.65755
2.68671
2.71564
2.74329
2.77003
2.79635
2.82255
2.84832
2.87221
2.89222
2.90851
2.92313
2.93629
2.94837
2.95952
2.96985
2.97945
2.98822
2.99593
3.00249
3.00798
3.01242
3.01602
3.01891
3.02125
3.02363
3.02522
3.0269
3.02942
3.03227
3.03464
3.03574
3.03588
3.03609
3.03553
3.03405
3.03208
3.03002
3.02839
3.02767
3.02692
3.02466
3.02163
3.01838
3.01534
3.01244
3.00951
3.00715
3.00529
3.00386
3.00277
3.00196
3.00137
3.00094
3.00064
3.00043
3.00028
3.00018
3.00012
3.00008
1.34759
1.38246
1.43594
1.49168
1.5471
1.60198
1.65327
1.70371
1.75286
1.80089
1.84806
1.89411
1.93837
1.98057
2.02074
2.05949
2.09697
2.13349
2.169
2.20327
2.23521
2.26578
2.29343
2.31993
2.34474
2.36838
2.39168
2.41366
2.43512
2.45675
2.47692
2.49768
2.51911
2.54061
2.56329
2.58728
2.61224
2.63868
2.66624
2.69355
2.72021
2.74731
2.77436
2.80035
2.82502
2.84822
2.87096
2.89399
2.91474
2.93051
2.94328
2.95418
2.96349
2.9718
2.9796
2.98707
2.99394
3.00012
3.00572
3.0108
3.01496
3.01828
3.0209
3.02297
3.02492
3.02701
3.0284
3.02974
3.03182
3.03484
3.03738
3.03863
3.03963
3.03928
3.03769
3.03542
3.03293
3.03064
3.02934
3.02916
3.02731
3.02446
3.02114
3.01782
3.01476
3.01176
3.00893
3.00669
3.00493
3.00359
3.00257
3.00181
3.00126
3.00086
3.00058
3.00039
3.00026
3.00017
3.00011
3.00008
1.39763
1.42055
1.45888
1.50988
1.56112
1.61127
1.66181
1.70994
1.75689
1.80302
1.84784
1.89147
1.93391
1.97487
2.01449
2.05315
2.09131
2.12881
2.16564
2.2008
2.23501
2.26648
2.29776
2.32659
2.35525
2.38329
2.41018
2.43752
2.46398
2.48999
2.51668
2.54212
2.56728
2.59365
2.61894
2.6448
2.67174
2.69829
2.72499
2.75242
2.77915
2.80487
2.83083
2.8559
2.87935
2.90034
2.92023
2.9409
2.95933
2.97172
2.98143
2.98888
2.99457
2.99933
3.00362
3.00762
3.01135
3.0146
3.01757
3.02005
3.02232
3.02448
3.02618
3.02737
3.02841
3.02983
3.03115
3.0321
3.03358
3.0359
3.03827
3.04075
3.04205
3.04115
3.03886
3.03608
3.03341
3.03153
3.03126
3.02983
3.02726
3.02401
3.02051
3.01714
3.01407
3.01101
3.00833
3.00622
3.00458
3.00332
3.00238
3.00167
3.00116
3.0008
3.00054
3.00036
3.00024
3.00016
3.0001
3.00007
1.45931
1.4661
1.49091
1.5293
1.57726
1.62639
1.67376
1.72069
1.76684
1.81113
1.85403
1.89527
1.93489
1.97369
2.01227
2.05068
2.08914
2.12724
2.16464
2.20087
2.23566
2.26915
2.30139
2.33295
2.36419
2.39455
2.42571
2.45543
2.48572
2.51583
2.54512
2.57576
2.60561
2.63477
2.6648
2.69355
2.72159
2.75023
2.77749
2.80352
2.82987
2.85575
2.88013
2.90491
2.9286
2.94922
2.9673
2.98583
3.00368
3.01438
3.02192
3.02713
3.03032
3.03241
3.03393
3.03498
3.03558
3.03573
3.0356
3.03532
3.03499
3.03468
3.03439
3.03424
3.03438
3.03446
3.03505
3.03561
3.0364
3.03751
3.03948
3.04266
3.04382
3.04255
3.03983
3.03678
3.03404
3.0326
3.03185
3.02982
3.02682
3.02328
3.01965
3.0163
3.01319
3.01014
3.00765
3.0057
3.00418
3.00302
3.00216
3.00152
3.00105
3.00072
3.00049
3.00032
3.00021
3.00014
3.00009
3.00006
1.55711
1.52143
1.5324
1.55784
1.59745
1.64318
1.6895
1.73464
1.77868
1.8221
1.86363
1.90316
1.9414
1.97893
2.0162
2.05384
2.09177
2.12961
2.16695
2.20333
2.23864
2.27298
2.30656
2.33984
2.37262
2.4056
2.43784
2.47061
2.5026
2.53483
2.56739
2.5991
2.63185
2.66445
2.69617
2.72861
2.75901
2.78804
2.81727
2.84491
2.87078
2.89687
2.92169
2.94522
2.96855
2.98952
3.00582
3.02129
3.03814
3.04958
3.05556
3.06
3.06225
3.06322
3.0634
3.06283
3.06145
3.05936
3.05686
3.0542
3.05154
3.04897
3.04663
3.04467
3.04286
3.04177
3.04131
3.04103
3.04084
3.04106
3.04219
3.04476
3.04547
3.04393
3.04097
3.03765
3.03471
3.03322
3.03198
3.02947
3.02607
3.0223
3.01861
3.01529
3.01214
3.00925
3.00696
3.00516
3.00378
3.00272
3.00194
3.00136
3.00094
3.00064
3.00043
3.00029
3.00019
3.00013
3.00008
3.00006
1.71276
1.6036
1.58173
1.59725
1.62408
1.66386
1.70691
1.75113
1.79416
1.83535
1.8752
1.91396
1.95128
1.98772
2.02431
2.06127
2.0985
2.13571
2.17254
2.20866
2.24411
2.27894
2.31343
2.34767
2.38175
2.41573
2.44949
2.48319
2.51678
2.55032
2.58389
2.61772
2.65093
2.68466
2.7176
2.74988
2.78249
2.81312
2.84223
2.87169
2.8991
2.92483
2.95079
2.97472
2.99581
3.0168
3.03423
3.04759
3.06159
3.07476
3.08039
3.08398
3.08561
3.08589
3.08547
3.08421
3.08189
3.07868
3.075
3.07112
3.06732
3.06346
3.05938
3.05583
3.05289
3.05058
3.04901
3.04793
3.04691
3.04623
3.04632
3.0477
3.04748
3.04538
3.04202
3.03843
3.03527
3.03358
3.03183
3.02879
3.025
3.02104
3.01736
3.01408
3.01097
3.00832
3.00623
3.00461
3.00336
3.00242
3.00171
3.0012
3.00083
3.00057
3.00038
3.00026
3.00017
3.00011
3.00007
3.00005
2.0664
1.72987
1.65561
1.64299
1.66021
1.68787
1.72751
1.76829
1.81033
1.85142
1.8902
1.92724
1.96349
1.99959
2.03554
2.0716
2.10792
2.14436
2.18061
2.21644
2.25184
2.28689
2.32177
2.35652
2.39125
2.42585
2.46033
2.49466
2.52885
2.56306
2.59718
2.63135
2.66531
2.69863
2.73179
2.76385
2.79494
2.82602
2.85594
2.88522
2.91395
2.94082
2.96581
2.9903
3.01177
3.03006
3.0478
3.06117
3.07186
3.08539
3.09499
3.09759
3.09956
3.10004
3.09984
3.09873
3.09626
3.09267
3.0887
3.08457
3.08006
3.07491
3.0701
3.06584
3.06213
3.05902
3.05661
3.05473
3.05295
3.05154
3.05102
3.05096
3.04949
3.04653
3.0426
3.03875
3.03562
3.03378
3.03134
3.02765
3.02351
3.01947
3.01589
3.01269
3.00975
3.00738
3.00551
3.00406
3.00295
3.00211
3.00149
3.00104
3.00072
3.00049
3.00033
3.00022
3.00015
3.0001
3.00006
3.00005
2.50143
2.04111
1.76902
1.70956
1.70513
1.7218
1.74946
1.78809
1.82683
1.8668
1.90601
1.94314
1.97861
2.01347
2.04845
2.08393
2.11971
2.15544
2.19091
2.22624
2.26135
2.29634
2.33131
2.36627
2.40123
2.43604
2.47066
2.50505
2.53931
2.57352
2.6076
2.64159
2.67508
2.70817
2.74037
2.77197
2.80271
2.83266
2.86241
2.89075
2.91874
2.9461
2.97116
2.9941
3.01544
3.03343
3.04901
3.06319
3.07365
3.08251
3.09405
3.10068
3.10219
3.10322
3.10358
3.10314
3.10121
3.09798
3.09442
3.09045
3.08591
3.08085
3.07606
3.07171
3.06791
3.06465
3.06194
3.05956
3.0573
3.05569
3.05483
3.0533
3.05058
3.04679
3.04243
3.03853
3.03567
3.03376
3.03019
3.02588
3.02154
3.01759
3.0142
3.01119
3.00854
3.00643
3.00478
3.00351
3.00254
3.00181
3.00128
3.00089
3.00061
3.00042
3.00028
3.00019
3.00013
3.00009
3.00006
3.00004
2.78957
2.48045
2.05402
1.81685
1.76539
1.76603
1.78219
1.80882
1.84569
1.88258
1.92064
1.95817
1.99406
2.02869
2.06296
2.09745
2.13232
2.16754
2.2028
2.23781
2.27254
2.30713
2.34179
2.37653
2.41126
2.44582
2.48016
2.51424
2.54819
2.58196
2.61556
2.64882
2.6816
2.71378
2.74523
2.77612
2.80625
2.83603
2.8649
2.893
2.9199
2.94506
2.96854
2.98977
3.0088
3.02643
3.04113
3.05434
3.06598
3.07413
3.08261
3.09164
3.09578
3.09701
3.09802
3.09839
3.09746
3.09499
3.09203
3.0887
3.08475
3.08043
3.07627
3.07248
3.06914
3.06621
3.06359
3.06107
3.05912
3.05772
3.05589
3.05327
3.04962
3.04533
3.04121
3.03816
3.03625
3.03246
3.02796
3.02342
3.0192
3.0155
3.01238
3.00967
3.00734
3.0055
3.00407
3.00297
3.00214
3.00153
3.00107
3.00075
3.00051
3.00035
3.00024
3.00016
3.00011
3.00007
3.00005
3.00004
2.91862
2.78952
2.48812
2.09233
1.87017
1.8231
1.82561
1.84095
1.86597
1.90045
1.93582
1.97255
2.00866
2.04361
2.07783
2.11194
2.14619
2.1806
2.21505
2.24945
2.2838
2.31814
2.35249
2.38681
2.42104
2.45505
2.48881
2.52228
2.55555
2.58855
2.6213
2.65363
2.68548
2.71674
2.7475
2.77776
2.80753
2.83671
2.86494
2.89207
2.91735
2.94075
2.96181
2.98105
2.99844
3.01394
3.02791
3.03986
3.05097
3.06015
3.0671
3.07493
3.08158
3.08415
3.08558
3.08675
3.0868
3.08542
3.08315
3.08067
3.0776
3.07432
3.07129
3.06846
3.06588
3.06342
3.06126
3.05968
3.05801
3.05613
3.05363
3.05025
3.04635
3.04288
3.04156
3.03831
3.03406
3.02949
3.02495
3.02063
3.0167
3.01331
3.01051
3.00814
3.00615
3.00458
3.00338
3.00246
3.00176
3.00125
3.00088
3.00061
3.00042
3.00029
3.00019
3.00013
3.00009
3.00006
3.00004
3.00003
2.96969
2.92196
2.80132
2.51734
2.15025
1.92909
1.88231
1.88356
1.89805
1.92105
1.9529
1.98727
2.02312
2.05817
2.09228
2.12604
2.15977
2.1936
2.22747
2.26126
2.29488
2.32843
2.36201
2.39567
2.42927
2.46267
2.49576
2.52852
2.56102
2.59321
2.62509
2.6565
2.6875
2.71801
2.7482
2.77796
2.80723
2.83556
2.86256
2.88766
2.91069
2.93179
2.95114
2.96897
2.98496
2.99967
3.01269
3.02416
3.03449
3.04349
3.05069
3.05664
3.06314
3.06762
3.06917
3.07076
3.07159
3.07139
3.07031
3.06854
3.06665
3.0646
3.06261
3.06063
3.05898
3.05759
3.05635
3.05501
3.05333
3.05107
3.04825
3.04609
3.04528
3.0426
3.03895
3.03475
3.03028
3.0258
3.02153
3.01759
3.01408
3.01106
3.00861
3.00662
3.00498
3.00369
3.00271
3.00196
3.00141
3.001
3.0007
3.00049
3.00033
3.00023
3.00016
3.00011
3.00007
3.00005
3.00003
3.00003
2.98876
2.97415
2.9284
2.8245
2.56593
2.22447
1.99412
1.94269
1.93982
1.95391
1.97492
2.0038
2.03753
2.07202
2.10554
2.13863
2.17187
2.20532
2.23875
2.27198
2.30497
2.3378
2.37061
2.40344
2.43621
2.46877
2.50104
2.533
2.56466
2.59604
2.62711
2.65782
2.68822
2.71829
2.7479
2.77685
2.80485
2.83134
2.85598
2.87879
2.90001
2.91965
2.93778
2.95442
2.96965
2.98341
2.9959
3.00709
3.01675
3.02571
3.03315
3.03884
3.04433
3.04928
3.05192
3.0536
3.055
3.0556
3.05526
3.05439
3.05353
3.05248
3.05158
3.05076
3.05004
3.04938
3.04852
3.04729
3.04578
3.04557
3.04538
3.0438
3.04133
3.03808
3.03424
3.03006
3.02578
3.02163
3.01776
3.01431
3.01134
3.00884
3.00677
3.00514
3.00387
3.00286
3.00209
3.00151
3.00108
3.00076
3.00053
3.00037
3.00026
3.00018
3.00012
3.00008
3.00006
3.00004
3.00003
3.00002
2.99671
2.99095
2.97767
2.94085
2.85193
2.63358
2.31447
2.06877
2.00322
1.99419
2.00877
2.02891
2.0541
2.08562
2.11747
2.14946
2.18202
2.21503
2.24802
2.28084
2.31337
2.34555
2.37753
2.40947
2.4414
2.4732
2.50475
2.53601
2.56702
2.59782
2.6284
2.65856
2.6882
2.71724
2.74551
2.77263
2.79843
2.82279
2.84571
2.8671
2.88699
2.90542
2.92252
2.93828
2.95277
2.96597
2.97796
2.9888
2.9984
3.00684
3.0145
3.02054
3.02537
3.03044
3.03347
3.03563
3.03736
3.03851
3.03896
3.03906
3.03917
3.03913
3.03925
3.03923
3.03924
3.03905
3.03922
3.04035
3.04071
3.04054
3.03972
3.03803
3.03547
3.03222
3.02852
3.02462
3.02076
3.01713
3.01386
3.01102
3.00863
3.00666
3.00507
3.00382
3.00284
3.00209
3.00153
3.0011
3.00079
3.00056
3.00039
3.00027
3.00019
3.00013
3.00009
3.00006
3.00004
3.00003
3.00002
3.00002
2.99904
2.99722
2.99336
2.98175
2.95471
2.88226
2.70932
2.42161
2.16025
2.06325
2.04886
2.0627
2.08098
2.10316
2.13069
2.16012
2.19105
2.22292
2.2553
2.28756
2.31948
2.35104
2.38238
2.41368
2.44506
2.47637
2.50745
2.53821
2.56868
2.59883
2.62856
2.65767
2.68592
2.71313
2.73941
2.76474
2.78901
2.81198
2.8335
2.85355
2.8722
2.8896
2.90581
2.92086
2.93478
2.94753
2.95918
2.96975
2.9792
2.98756
2.99496
3.00129
3.00622
3.01082
3.01504
3.0172
3.01901
3.02066
3.02197
3.02305
3.02407
3.02502
3.0259
3.02706
3.02851
3.02996
3.03143
3.03277
3.03365
3.03373
3.03288
3.03112
3.0286
3.02556
3.02224
3.01885
3.01561
3.01267
3.0101
3.00793
3.00614
3.0047
3.00356
3.00267
3.00198