/*--------------------------------*- C++ -*----------------------------------*\
  =========                 |
  \\      /  F ield         | OpenFOAM: The Open Source CFD Toolbox
   \\    /   O peration     | Website:  https://openfoam.org
    \\  /    A nd           | Version:  13
     \\/     M anipulation  |
\*---------------------------------------------------------------------------*/
FoamFile
{
    format      ascii;
    class       volScalarField;
    location    "0.5";
    object      p;
}
// * * * * * * * * * * * * * * * * * * * * * * * * * * * * * * * * * * * * * //

dimensions      [1 -1 -2 0 0 0 0];

internalField   nonuniform List<scalar> 
5250
(
1
1
1
1.00001
1.00003
1.00008
1.00019
1.00054
1.00126
1.0035
1.00829
1.02233
1.05521
1.14616
1.39166
2.12679
4.46506
11.2801
12.5228
11.802
11.7946
12.0531
12.3867
12.475
12.5953
1
1
1
1.00001
1.00003
1.00008
1.00019
1.00053
1.00124
1.00343
1.00814
1.02192
1.05421
1.14349
1.38433
2.10502
4.39987
11.144
12.5373
11.7949
11.7853
12.0456
12.3846
12.472
12.5929
1
1
1
1.00001
1.00003
1.00008
1.00018
1.00052
1.00119
1.00332
1.00777
1.02125
1.05186
1.13834
1.3687
2.0594
4.25933
10.8287
12.5649
11.7739
11.7484
12.0065
12.3521
12.4359
12.5593
1
1
1
1.00001
1.00003
1.00008
1.00017
1.00049
1.00112
1.00313
1.00731
1.02006
1.04877
1.13026
1.34604
1.99096
4.04868
10.3188
12.6101
11.748
11.6842
11.9337
12.2841
12.3656
12.4919
1
1
1
1.00001
1.00003
1.00007
1.00016
1.00045
1.00104
1.0029
1.00674
1.01853
1.04485
1.11988
1.31702
1.90285
3.77539
9.60624
12.6662
11.7255
11.5996
11.8314
12.181
12.2599
12.3913
1
1
1
1.00001
1.00002
1.00006
1.00015
1.00041
1.00095
1.00264
1.00608
1.01681
1.04027
1.10782
1.28278
1.79866
3.44374
8.68196
12.6955
11.7105
11.4997
11.6971
12.0317
12.1065
12.239
1
1
1
1.00001
1.00002
1.00006
1.00014
1.00038
1.00086
1.00237
1.00545
1.01498
1.03558
1.09493
1.24589
1.68603
3.06948
7.52986
12.6829
11.6956
11.3827
11.5288
11.8228
11.8827
12.0071
1
1
1
1.00001
1.00002
1.00005
1.00012
1.00034
1.00077
1.00213
1.00488
1.01339
1.03147
1.08364
1.21255
1.5812
2.68985
6.17447
12.5217
11.6489
11.2318
11.3186
11.534
11.5664
11.6523
1
1
1
1.00001
1.00002
1.00005
1.00011
1.0003
1.00069
1.00188
1.00433
1.01186
1.02784
1.07398
1.18614
1.50487
2.43676
5.28992
11.9424
11.5062
11.0403
11.0517
11.1376
11.1096
11.0826
1
1
1
1.00001
1.00001
1.00004
1.00009
1.00025
1.00059
1.00161
1.00373
1.01022
1.02397
1.06397
1.15973
1.43184
2.217
4.60114
10.8607
11.1573
10.8843
10.6928
10.6355
10.4601
10.1066
1
1
1
1
1.00001
1.00003
1.00008
1.00021
1.00049
1.00134
1.00311
1.00854
1.02001
1.05384
1.13332
1.35949
2.00466
3.97691
9.53587
10.9025
10.6469
10.2747
10.0038
9.4104
7.81208
1
1
1
1
1.00001
1.00003
1.00006
1.00017
1.00039
1.00106
1.00255
1.00671
1.01657
1.04271
1.1088
1.28744
1.80018
3.36698
8.00767
10.715
10.4097
9.85807
9.37908
8.56536
6.91082
1
1
1
1
1.00001
1.00002
1.00005
1.00012
1.00031
1.0008
1.00197
1.00519
1.01262
1.0331
1.08277
1.21903
1.59549
2.75079
6.23843
10.431
10.1365
9.49724
8.88991
8.01694
6.64647
1
1
1
1
1.00001
1.00001
1.00004
1.00009
1.00025
1.00058
1.00161
1.00373
1.01028
1.02417
1.06476
1.16229
1.43973
2.23965
4.58696
9.77223
9.68839
9.2534
8.54073
7.68192
6.56796
1
1
1
1
1
1.00001
1.00003
1.00007
1.00017
1.00047
1.00112
1.00299
1.00728
1.01891
1.04743
1.12284
1.32447
1.90644
3.6486
8.29677
9.23608
8.96619
8.32762
7.46777
6.51214
1
1
1
1
1
1.00001
1.00002
1.00005
1.00012
1.00034
1.00078
1.00217
1.005
1.01387
1.03298
1.08856
1.22727
1.62866
2.82979
6.31222
8.91848
8.74143
8.21241
7.35745
6.48638
1
1
1
1
1
1.00001
1.00001
1.00003
1.00009
1.00023
1.00055
1.00147
1.00352
1.00948
1.02273
1.06033
1.15158
1.40761
2.12893
4.15149
8.28914
8.41343
8.10203
7.36328
6.49475
1
1
1
1
1
1
1.00001
1.00002
1.00006
1.00014
1.0004
1.00092
1.00257
1.00594
1.01649
1.03913
1.10503
1.27055
1.75082
3.13976
6.81134
8.09907
7.90771
7.3582
6.53189
1
1
1
1
1
1
1.00001
1.00002
1.00004
1.0001
1.00023
1.00065
1.0015
1.00415
1.0097
1.02622
1.06362
1.16905
1.44571
2.24796
4.43756
7.56557
7.58775
7.31797
6.65021
1
1
1
1
1
1
1
1.00001
1.00003
1.00006
1.00016
1.00037
1.00104
1.00241
1.00663
1.01565
1.042
1.10378
1.27839
1.75176
3.09265
6.34768
7.33669
7.20258
6.77005
1
1
1
1
1
1
1
1.00001
1.00001
1.00004
1.00009
1.00025
1.00057
1.00157
1.00365
1.01003
1.02353
1.06321
1.15725
1.42369
2.15038
4.0645
6.8004
6.95358
6.73696
1
1
1
1
1
1
1
1
1.00001
1.00002
1.00006
1.00013
1.00036
1.00085
1.00234
1.00544
1.01495
1.0356
1.09499
1.24302
1.65991
2.78807
5.54619
6.65666
6.59735
1
1
1
1
1
1
1
1
1
1.00001
1.00003
1.00008
1.00019
1.00051
1.00123
1.00331
1.0078
1.02108
1.05065
1.13391
1.34322
1.91234
3.2995
5.98634
6.38554
1
1
1
1
1
1
1
1
1
1.00001
1.00002
1.00004
1.0001
1.00028
1.00066
1.00177
1.00424
1.01119
1.0277
1.07171
1.18486
1.48978
2.31118
4.38259
5.96068
1
1
1
1
1
1
1
1
1
1
1.00001
1.00002
1.00005
1.00014
1.00036
1.00088
1.00234
1.00563
1.01512
1.03678
1.0973
1.24957
1.66287
2.70042
4.97806
1
1
1
1
1
1
1
1
1
1
1
1.00001
1.00003
1.00007
1.00017
1.00046
1.00111
1.00301
1.00709
1.01933
1.04627
1.12266
1.31048
1.79875
2.92495
1
1
1
1
1
1
1
1
1
1
1
1.00001
1.00001
1.00003
1.00008
1.00022
1.00052
1.00144
1.00336
1.00926
1.0217
1.05871
1.14456
1.38199
1.97464
1
1
1
1
1
1
1
1
1
1
1
1
1.00001
1.00002
1.00004
1.0001
1.00024
1.00065
1.00157
1.00415
1.0103
1.02651
1.06739
1.17524
1.45101
1
1
1
1
1
1
1
1
1
1
1
1
1
1.00001
1.00002
1.00004
1.00011
1.00027
1.00071
1.00175
1.00467
1.01134
1.03039
1.07531
1.19899
1
1
1
1
1
1
1
1
1
1
1
1
1
1
1.00001
1.00002
1.00004
1.00012
1.00028
1.00078
1.00181
1.00508
1.01193
1.03291
1.08032
1
1
1
1
1
1
1
1
1
1
1
1
1
1
1
1.00001
1.00002
1.00004
1.00011
1.00029
1.00074
1.00195
1.0048
1.01291
1.03173
1
1
1
1
1
1
1
1
1
1
1
1
1
1
1
1
1.00001
1.00002
1.00004
1.0001
1.00028
1.00068
1.00191
1.00449
1.01261
1
1
1
1
1
1
1
1
1
1
1
1
1
1
1
1
1
1.00001
1.00001
1.00004
1.00009
1.00026
1.00062
1.0017
1.00413
1
1
1
1
1
1
1
1
1
1
1
1
1
1
1
1
1
1
1
1.00001
1.00003
1.00008
1.00021
1.00055
1.00137
1
1
1
1
1
1
1
1
1
1
1
1
1
1
1
1
1
1
1
1
1.00001
1.00002
1.00006
1.00017
1.00042
1
1
1
1
1
1
1
1
1
1
1
1
1
1
1
1
1
1
1
1
1
1.00001
1.00002
1.00004
1.00013
1
1
1
1
1
1
1
1
1
1
1
1
1
1
1
1
1
1
1
1
1
1
1
1.00001
1.00003
1
1
1
1
1
1
1
1
1
1
1
1
1
1
1
1
1
1
1
1
1
1
1
1
1.00001
1
1
1
1
1
1
1
1
1
1
1
1
1
1
1
1
1
1
1
1
1
1
1
1
1
1
1
1
1
1
1
1
1
1
1
1
1
1
1
1
1
1
1
1
1
1
1
1
1
1
1
1
1
1
1
1
1
1
1
1
1
1
1
1
1
1
1
1
1
1
1
1
1
1
1
1
1
1
1
1
1
1
1
1
1
1
1
1
1
1
1
1
1
1
1
1
1
1
1
1
1
1
1
1
1
1
1
1
1
1
1
1
1
1
1
1
1
1
1
1
1
1
1
1
1
1
1
1
1
1
1
1
1
1
1
1
1
1
1
1
1
1
1
1
1
1
1
1
1
1
1
1
1
1
1
1
1
1
1
1
1
1
1
1
1
1
1
1
1
1
1
1
1
1
1
1
1
1
1
1
1
1
1
1
1
1
1
1
1
1
1
1
1
1
1
1
1
1
1
1
1
1
1
1
1
1
1
1
1
1
1
1
1
1
1
1
1
1
1
1
1
1
1
1
1
1
1
1
1
1
1
1
1
1
1
1
1
1
1
1
1
1
1
1
1
1
1
1
1
1
1
1
1
1
1
1
1
1
1
1
1
1
1
1
1
1
1
1
1
1
1
1
1
1
1
1
1
1
1
1
1
1
1
1
1
1
1
1
1
1
1
1
1
1
1
1
1
1
1
1
3.14809
1.56109
1.03592
0.879585
0.892088
0.939953
1.0433
1.14016
1.16903
1.16521
1.15196
1.12277
1.08969
1.06593
1.05178
1.04067
1.03028
1.0189
1.00607
0.992155
0.977843
0.963749
0.950276
0.937605
0.925757
0.914719
0.904505
0.895129
0.886598
0.879036
0.872504
0.86675
0.861996
0.858674
0.855838
0.853383
0.852178
0.851888
0.851929
0.852151
0.852765
0.85419
0.85637
0.860339
0.86478
0.868854
0.873498
0.878764
0.884655
0.891108
0.898057
0.905366
0.912866
0.92038
0.927717
0.934695
0.941169
0.947064
0.952395
0.957274
0.961886
0.966454
0.971187
0.97626
0.981782
0.987759
0.994098
1.00062
1.00706
1.01311
1.01842
1.02272
1.02582
1.02769
1.02851
1.02869
1.02868
1.02854
1.0281
1.02689
1.02392
1.02004
1.0159
1.01199
1.00885
1.00636
1.00446
1.00305
1.00202
1.00125
1.00077
1.00049
1.0003
1.00018
1.0001
1.00005
1.00003
1.00001
1
0.999991
3.87144
2.37967
1.73105
1.44183
1.29875
1.19507
1.12595
1.09936
1.10043
1.10436
1.11256
1.11201
1.10781
1.09689
1.0746
1.05078
1.03073
1.01444
1.00054
0.987952
0.975911
0.963878
0.951669
0.939406
0.927335
0.915772
0.904988
0.895144
0.886363
0.878715
0.872139
0.866623
0.862162
0.858588
0.855819
0.853841
0.852623
0.852068
0.851904
0.852093
0.852685
0.854097
0.85616
0.858999
0.863811
0.869118
0.873132
0.878165
0.883955
0.890344
0.897187
0.90437
0.911764
0.919201
0.926498
0.933477
0.939997
0.945982
0.951435
0.956448
0.961185
0.965854
0.970679
0.975834
0.981401
0.9874
0.993755
1.00029
1.00675
1.01283
1.01818
1.02251
1.02562
1.02751
1.02839
1.02861
1.02861
1.0285
1.02811
1.02703
1.02438
1.02018
1.0157
1.01193
1.00884
1.0064
1.00453
1.00306
1.00191
1.00122
1.0008
1.0005
1.00031
1.00018
1.0001
1.00005
1.00003
1.00001
1
0.999989
4.67524
3.29674
2.43085
1.8818
1.52426
1.29334
1.14991
1.06675
1.04842
1.05069
1.0575
1.07135
1.07613
1.07471
1.06951
1.0579
1.03748
1.01695
0.998745
0.984056
0.971292
0.95936
0.947689
0.936169
0.924834
0.913865
0.903472
0.893821
0.885092
0.877389
0.870726
0.865181
0.860697
0.857077
0.854442
0.852561
0.851182
0.850825
0.850873
0.851115
0.851821
0.853306
0.855347
0.858396
0.863247
0.868274
0.872607
0.877754
0.883604
0.890024
0.896906
0.904135
0.911576
0.919059
0.926401
0.933425
0.939993
0.946028
0.951531
0.956586
0.961353
0.966045
0.970876
0.976027
0.981618
0.987664
0.994068
1.00064
1.00711
1.01318
1.01852
1.02281
1.02587
1.02772
1.02855
1.02876
1.02876
1.02866
1.02827
1.02717
1.02457
1.01994
1.01554
1.01182
1.00878
1.00636
1.00447
1.00298
1.00187
1.00122
1.00079
1.0005
1.00031
1.00018
1.0001
1.00005
1.00003
1.00001
1
0.999989
5.09968
3.84958
2.93143
2.29465
1.86494
1.5718
1.37473
1.24663
1.1568
1.10044
1.06963
1.05686
1.05548
1.05568
1.0551
1.05289
1.04732
1.03568
1.01706
0.997182
0.978985
0.963092
0.94924
0.936971
0.925711
0.915196
0.905271
0.895879
0.887132
0.879199
0.872202
0.866306
0.861503
0.857625
0.854799
0.852804
0.851335
0.850941
0.850979
0.851201
0.851852
0.853242
0.855368
0.858361
0.862938
0.868171
0.872542
0.877689
0.883527
0.889937
0.896814
0.904042
0.911477
0.918949
0.926272
0.933274
0.939827
0.945863
0.951392
0.956501
0.961347
0.966132
0.971073
0.976351
0.982069
0.988234
0.994751
1.00143
1.00799
1.0141
1.01942
1.02368
1.02669
1.02845
1.02919
1.02934
1.02932
1.0292
1.02874
1.02742
1.02456
1.01975
1.01542
1.01175
1.00874
1.00634
1.00441
1.00286
1.00184
1.00123
1.0008
1.0005
1.00031
1.00018
1.0001
1.00005
1.00003
1.00001
1
0.999989
5.34423
4.24753
3.36401
2.69968
2.21458
1.86126
1.60161
1.40937
1.26746
1.16527
1.09611
1.05041
1.02963
1.02059
1.01823
1.01771
1.01649
1.01357
1.00739
0.995378
0.98035
0.964572
0.94929
0.935349
0.922584
0.911377
0.901466
0.892352
0.884001
0.876519
0.869929
0.86434
0.859734
0.855914
0.853098
0.851071
0.849551
0.849192
0.84925
0.849522
0.850215
0.851727
0.853913
0.857798
0.861902
0.866468
0.871457
0.876967
0.883009
0.889548
0.8965
0.903758
0.911197
0.918641
0.925898
0.932807
0.939257
0.94521
0.950695
0.955798
0.960673
0.965506
0.970517
0.975899
0.981758
0.988091
0.994795
1.00166
1.00838
1.01461
1.02
1.02426
1.02725
1.02897
1.02968
1.0298
1.02979
1.02962
1.02909
1.02755
1.02456
1.01955
1.0152
1.01156
1.00859
1.0062
1.00427
1.00275
1.00181
1.00121
1.00079
1.00049
1.0003
1.00018
1.0001
1.00005
1.00002
1.00001
1
0.999989
5.50299
4.5445
3.71941
3.05751
2.54476
2.15154
1.85093
1.62118
1.44514
1.31037
1.20814
1.13459
1.07991
1.04201
1.01981
1.00764
1.00168
0.999656
0.997805
0.994055
0.986464
0.974483
0.96081
0.946347
0.932353
0.918817
0.906459
0.895525
0.886109
0.878241
0.871602
0.866055
0.861496
0.857681
0.854798
0.852654
0.850985
0.850355
0.850362
0.850533
0.851066
0.852258
0.854693
0.85798
0.86187
0.866356
0.871376
0.876922
0.88297
0.889492
0.896428
0.903629
0.911022
0.918426
0.925627
0.932464
0.938836
0.944726
0.950177
0.955283
0.960191
0.965065
0.970118
0.975569
0.981539
0.988023
0.994887
1.00191
1.00877
1.01511
1.02058
1.0249
1.0279
1.0296
1.03028
1.03037
1.03021
1.02999
1.02946
1.02797
1.0248
1.01953
1.01507
1.01142
1.00847
1.00608
1.00411
1.00266
1.00182
1.00121
1.00078
1.00049
1.0003
1.00018
1.0001
1.00005
1.00003
1.00001
1
0.999989
5.61661
4.77138
4.01396
3.37388
2.85229
2.43494
2.10371
1.8412
1.63275
1.46683
1.3348
1.23089
1.14928
1.08757
1.04197
1.01021
0.989558
0.977997
0.971517
0.96782
0.964936
0.960578
0.953688
0.944051
0.932662
0.920288
0.907861
0.896147
0.885507
0.876826
0.86949
0.86337
0.858482
0.854539
0.851668
0.84966
0.848178
0.847818
0.847867
0.848128
0.848828
0.850298
0.852924
0.856237
0.860238
0.8649
0.870179
0.876031
0.8824
0.889193
0.896372
0.903788
0.911364
0.918951
0.926323
0.933299
0.939766
0.945653
0.951116
0.956394
0.961456
0.966398
0.971487
0.976973
0.982949
0.989424
0.996286
1.00329
1.01011
1.01639
1.02176
1.02591
1.02869
1.03018
1.03067
1.03079
1.03096
1.0308
1.03019
1.02837
1.02447
1.01917
1.01479
1.01119
1.00826
1.00587
1.00392
1.00259
1.00177
1.00118
1.00076
1.00048
1.00029
1.00017
1.0001
1.00005
1.00002
1.00001
1
0.999989
5.71654
4.95493
4.25915
3.64917
3.13208
2.70304
2.35115
2.06422
1.83054
1.64028
1.48519
1.35935
1.25761
1.17614
1.11107
1.06083
1.02315
0.995355
0.976223
0.963951
0.956429
0.951552
0.947011
0.941341
0.934045
0.925339
0.915442
0.904962
0.8948
0.88469
0.875425
0.86764
0.861359
0.856467
0.85273
0.850246
0.848449
0.847717
0.847738
0.84795
0.848576
0.849907
0.852417
0.855703
0.85972
0.86445
0.869846
0.875846
0.88237
0.889327
0.89665
0.904244
0.911988
0.91967
0.927119
0.934217
0.940877
0.946934
0.952264
0.957576
0.963092
0.968125
0.973269
0.978897
0.985106
0.99187
0.998941
1.00602
1.0128
1.01893
1.02404
1.02784
1.03021
1.03137
1.0319
1.0324
1.03238
1.03211
1.03117
1.02878
1.02399
1.01887
1.01459
1.01103
1.00811
1.0057
1.00378
1.00256
1.00175
1.00117
1.00075
1.00047
1.00029
1.00017
1.0001
1.00005
1.00003
1.00001
1
0.99999
5.8398
5.11947
4.47121
3.89168
3.38616
2.95398
2.58966
2.28466
2.03093
1.81998
1.64498
1.49977
1.3794
1.27974
1.19735
1.12983
1.07512
1.03143
0.997686
0.972393
0.953824
0.94047
0.931031
0.924371
0.919082
0.913698
0.907678
0.900887
0.893325
0.885281
0.877726
0.870557
0.864085
0.858562
0.853995
0.850473
0.848017
0.84624
0.845869
0.845963
0.846371
0.847372
0.849443
0.852723
0.856786
0.861571
0.867041
0.873138
0.879744
0.886775
0.894149
0.901739
0.909497
0.917273
0.924724
0.931796
0.938403
0.944512
0.950246
0.955745
0.961237
0.967175
0.973425
0.979255
0.985657
0.992943
1.0005
1.00795
1.01492
1.02107
1.02604
1.0296
1.03175
1.03286
1.0337
1.03385
1.0337
1.03317
1.03161
1.02822
1.02305
1.01826
1.01412
1.01065
1.00779
1.0054
1.00358
1.00249
1.00169
1.00112
1.00072
1.00045
1.00028
1.00016
1.00009
1.00005
1.00002
1.00001
1
0.99999
5.982
5.27739
4.6591
4.10448
3.61316
3.18388
2.81377
2.49737
2.2288
2.00161
1.80999
1.64841
1.51232
1.3976
1.301
1.21969
1.15165
1.09511
1.04834
1.01018
0.979976
0.956497
0.938818
0.925484
0.915667
0.908149
0.902166
0.896957
0.892049
0.887028
0.881665
0.876137
0.870603
0.86533
0.860506
0.856347
0.853032
0.850497
0.848797
0.848483
0.84857
0.848965
0.849984
0.852142
0.855831
0.86029
0.86548
0.871355
0.877741
0.884415
0.891533
0.899173
0.906779
0.914279
0.921552
0.928487
0.935019
0.941131
0.946899
0.952535
0.9583
0.964426
0.971062
0.978084
0.984888
0.992422
1.00066
1.00866
1.01599
1.02233
1.0274
1.03097
1.03323
1.0348
1.03537
1.0353
1.035
1.03412
1.03195
1.02777
1.02251
1.01777
1.01371
1.01031
1.00748
1.00513
1.00347
1.00243
1.00165
1.0011
1.00071
1.00045
1.00027
1.00016
1.00009
1.00005
1.00003
1.00001
1
0.999991
6.20152
5.46805
4.84057
4.30142
3.821
3.39619
3.02385
2.7005
2.42147
2.18181
1.97674
1.8018
1.65224
1.52449
1.41518
1.32169
1.24167
1.17336
1.11509
1.06569
1.02405
0.989388
0.960947
0.938244
0.920274
0.90635
0.895974
0.888248
0.882434
0.877825
0.873905
0.870494
0.867196
0.863931
0.860734
0.857681
0.85492
0.852503
0.850832
0.850389
0.850433
0.850718
0.851549
0.85337
0.856815
0.861236
0.866621
0.872709
0.879137
0.88594
0.893499
0.901246
0.90881
0.916194
0.923233
0.929811
0.935926
0.941644
0.947086
0.952453
0.95801
0.964038
0.97065
0.977806
0.985217
0.992629
1.00097
1.00923
1.01671
1.02305
1.02809
1.03175
1.03433
1.0359
1.03621
1.03608
1.0357
1.03474
1.03239
1.0278
1.02214
1.01728
1.01323
1.00988
1.00708
1.00483
1.00334
1.00233
1.00158
1.00104
1.00067
1.00042
1.00026
1.00015
1.00009
1.00005
1.00002
1.00001
1
0.999992
6.3001
5.68156
5.03874
4.48798
4.0146
3.59492
3.22244
2.8943
2.60799
2.35929
2.14356
1.95694
1.79578
1.65667
1.53626
1.43211
1.34163
1.26328
1.19509
1.13605
1.08489
1.0409
1.00326
0.97138
0.944863
0.923352
0.906154
0.892517
0.882429
0.874929
0.869498
0.865439
0.862295
0.859645
0.857542
0.855761
0.853973
0.852614
0.85202
0.851984
0.852106
0.852567
0.85378
0.856492
0.860302
0.865102
0.871114
0.877799
0.884796
0.892657
0.901263
0.909576
0.917659
0.92534
0.932465
0.938933
0.944766
0.950095
0.955104
0.959981
0.964891
0.970224
0.976219
0.982873
0.989966
0.997052
1.0048
1.01272
1.01983
1.02572
1.03032
1.03393
1.03647
1.03729
1.03737
1.03732
1.03702
1.03606
1.03341
1.02789
1.02177
1.01687
1.01285
1.00953
1.00675
1.00461
1.00325
1.00225
1.00152
1.00101
1.00065
1.00041
1.00025
1.00015
1.00009
1.00005
1.00002
1.00001
1.00001
0.999993
6.25202
5.89255
5.25571
4.68753
4.20211
3.78224
3.41201
3.08136
2.78944
2.53313
2.30896
2.11289
1.94176
1.79255
1.66231
1.54849
1.44874
1.36128
1.28436
1.21673
1.15718
1.10493
1.05919
1.01944
0.985028
0.955687
0.930859
0.910437
0.893592
0.880238
0.87017
0.862608
0.857026
0.852955
0.849827
0.847579
0.845656
0.84485
0.844854
0.845054
0.84567
0.847032
0.84982
0.853749
0.85836
0.864402
0.871876
0.87968
0.887741
0.897202
0.906891
0.916144
0.925065
0.933379
0.940897
0.947572
0.953429
0.958659
0.96352
0.968269
0.97329
0.978718
0.984704
0.991358
0.998231
1.00495
1.01207
1.01927
1.02584
1.031
1.03506
1.03815
1.03938
1.03974
1.03978
1.03969
1.03919
1.0374
1.03307
1.02639
1.02086
1.01621
1.01231
1.00906
1.00635
1.00438
1.0031
1.00214
1.00144
1.00095
1.00061
1.00038
1.00024
1.00014
1.00008
1.00004
1.00002
1.00001
1.00001
0.999994
6.07376
5.8937
5.4792
4.90722
4.40281
3.97134
3.59475
3.26427
2.9686
2.70558
2.47327
2.26893
2.08909
1.93096
1.79185
1.66935
1.56121
1.46545
1.3806
1.30519
1.2383
1.17876
1.12611
1.07945
1.03844
1.00256
0.971316
0.944466
0.921427
0.902097
0.885609
0.872247
0.861772
0.853547
0.847311
0.842632
0.839399
0.837284
0.836194
0.836207
0.836482
0.837309
0.839119
0.842857
0.847797
0.854003
0.861797
0.86964
0.877715
0.887768
0.897816
0.907668
0.917376
0.926669
0.93537
0.943382
0.950727
0.95761
0.96412
0.970441
0.976828
0.983356
0.990228
0.99751
1.00518
1.01268
1.01993
1.02695
1.03312
1.03805
1.04173
1.04348
1.04384
1.04386
1.04377
1.04327
1.04148
1.03738
1.03113
1.02527
1.02006
1.01555
1.01176
1.00858
1.00599
1.0042
1.00297
1.00204
1.00138
1.00091
1.00059
1.00037
1.00023
1.00014
1.00008
1.00004
1.00002
1.00001
1.00001
0.999995
5.79653
5.77615
5.57649
5.15259
4.63221
4.17549
3.78462
3.44333
3.14277
2.87585
2.63734
2.42545
2.23795
2.07195
1.92468
1.7941
1.67802
1.57464
1.48244
1.40002
1.32634
1.26038
1.20145
1.14881
1.10196
1.06032
1.02355
0.991124
0.962703
0.937916
0.916268
0.897572
0.880976
0.867248
0.856116
0.847241
0.840267
0.835105
0.831751
0.829818
0.82982
0.830078
0.830946
0.832847
0.836338
0.840248
0.845901
0.852286
0.85816
0.866732
0.875703
0.884728
0.894081
0.903568
0.913024
0.922393
0.931689
0.940994
0.95029
0.959621
0.969018
0.978481
0.988076
0.997727
1.00711
1.01621
1.02451
1.0321
1.03856
1.04374
1.04706
1.04773
1.04775
1.04762
1.0471
1.04558
1.04198
1.03652
1.03015
1.02431
1.01916
1.01477
1.0111
1.00802
1.0056
1.00399
1.0028
1.00192
1.00129
1.00085
1.00055
1.00035
1.00021
1.00013
1.00007
1.00004
1.00002
1.00001
1.00001
0.999996
5.10602
5.55299
5.50093
5.29385
4.87413
4.40622
3.99287
3.63527
3.32234
3.04563
2.80106
2.58346
2.38881
2.21504
2.06034
1.92221
1.7988
1.68831
1.58926
1.5003
1.42034
1.34845
1.28381
1.22577
1.17368
1.12708
1.0854
1.04828
1.01521
0.985825
0.959793
0.936591
0.916185
0.897965
0.881457
0.867525
0.856163
0.846889
0.839791
0.834464
0.831105
0.82881
0.828835
0.829187
0.830214
0.832509
0.836501
0.841438
0.845948
0.851426
0.858598
0.865532
0.873142
0.881383
0.890144
0.899486
0.909496
0.920159
0.931387
0.94308
0.955095
0.967359
0.979669
0.991825
1.00377
1.01493
1.02491
1.03367
1.04104
1.04659
1.04981
1.05025
1.0502
1.04991
1.04898
1.04669
1.04204
1.03591
1.02926
1.02334
1.01825
1.01398
1.01043
1.00747
1.00528
1.00377
1.00264
1.00181
1.00122
1.0008
1.00052
1.00033
1.0002
1.00012
1.00007
1.00004
1.00002
1.00001
1.00001
0.999997
3.43233
5.02579
5.31688
5.24811
5.04371
4.63387
4.21427
3.84011
3.51217
3.22408
2.96877
2.74199
2.54078
2.36127
2.19971
2.05448
1.92404
1.80671
1.70107
1.60583
1.51992
1.44239
1.37243
1.30934
1.25247
1.2013
1.15524
1.11388
1.07672
1.04332
1.01338
0.986404
0.962291
0.940513
0.921329
0.903914
0.888245
0.874773
0.86367
0.854719
0.847891
0.842521
0.839191
0.836789
0.836352
0.836558
0.83727
0.838846
0.842011
0.845013
0.850397
0.85608
0.862536
0.869908
0.878024
0.886932
0.896813
0.907708
0.919469
0.931914
0.944829
0.9582
0.972101
0.985927
0.999311
1.01185
1.02308
1.03277
1.04084
1.04688
1.05035
1.05086
1.05081
1.05049
1.04951
1.0471
1.04198
1.0351
1.02815
1.02222
1.01724
1.01312
1.00969
1.00692
1.00494
1.00352
1.00246
1.00168
1.00113
1.00074
1.00048
1.0003
1.00019
1.00011
1.00007
1.00004
1.00002
1.00001
1.00001
0.999998
2.15203
3.74507
4.89852
5.09595
5.01883
4.81946
4.43241
4.05569
3.71439
3.41176
3.14452
2.90795
2.69741
2.50942
2.34141
2.19045
2.05382
1.93012
1.81809
1.71678
1.62512
1.54216
1.46711
1.3992
1.33779
1.28228
1.23213
1.18682
1.14589
1.10889
1.07543
1.04516
1.0178
0.993116
0.970925
0.951032
0.933409
0.917677
0.903763
0.890904
0.880862
0.872592
0.865965
0.861122
0.857553
0.855324
0.85411
0.854218
0.854612
0.855474
0.857196
0.860755
0.865138
0.87077
0.877415
0.885172
0.894267
0.904736
0.9162
0.928423
0.941473
0.955537
0.969939
0.984324
0.998283
1.01138
1.02307
1.0331
1.04138
1.04744
1.0506
1.0512
1.05118
1.0509
1.05
1.04757
1.04214
1.03421
1.02697
1.02106
1.01623
1.01226
1.00897
1.00641
1.00461
1.00326
1.00226
1.00154
1.00104
1.00068
1.00044
1.00028
1.00017
1.00011
1.00006
1.00004
1.00002
1.00001
1.00001
0.999999
1.50516
2.24685
3.85958
4.74592
4.8869
4.80803
4.6184
4.27009
3.92882
3.6136
3.33165
3.08218
2.86123
2.66471
2.48867
2.33003
2.18677
2.05719
1.93976
1.83293
1.73587
1.64772
1.56774
1.49518
1.42938
1.3697
1.3156
1.26652
1.222
1.18158
1.14485
1.11151
1.08122
1.05383
1.02905
1.00683
0.986943
0.969292
0.953517
0.940243
0.927839
0.917124
0.907521
0.899829
0.893768
0.888887
0.885324
0.883051
0.88143
0.881438
0.881669
0.882492
0.8844
0.888254
0.893352
0.89969
0.907526
0.916906
0.927271
0.938632
0.951043
0.964431
0.978227
0.991992
1.00535
1.01778
1.02879
1.03814
1.04562
1.05062
1.05276
1.0533
1.05327
1.05296
1.05191
1.04882
1.04193
1.03274
1.02556
1.01983
1.01517
1.01137
1.00827
1.00592
1.00424
1.00299
1.00207
1.0014
1.00094
1.00062
1.0004
1.00025
1.00016
1.0001
1.00006
1.00003
1.00002
1.00001
1.00001
0.999999
1.21261
1.53021
2.26945
3.8458
4.57288
4.68641
4.61287
4.44122
4.13759
3.82801
3.53417
3.26961
3.03519
2.82762
2.64271
2.47658
2.32632
2.18983
2.06576
1.9532
1.85105
1.75823
1.67377
1.59688
1.5269
1.46321
1.40526
1.35251
1.30448
1.26072
1.22085
1.18454
1.15149
1.12149
1.09432
1.06985
1.04786
1.02821
1.01076
0.99541
0.981905
0.969996
0.959947
0.950757
0.942812
0.936026
0.929929
0.925343
0.922159
0.91953
0.918783
0.918856
0.919374
0.920775
0.923791
0.928649
0.935039
0.943072
0.9522
0.962273
0.9735
0.985504
0.997992
1.01024
1.02205
1.03282
1.04218
1.04985
1.05523
1.05811
1.05929
1.05948
1.05936
1.05878
1.05627
1.0495
1.0388
1.03066
1.02404
1.01859
1.01414
1.01053
1.00763
1.00546
1.00389
1.00272
1.00188
1.00127
1.00085
1.00056
1.00036
1.00023
1.00014
1.00009
1.00005
1.00003
1.00002
1.00001
1.00001
1
1.08415
1.21121
1.52837
2.23431
3.73114
4.38106
4.49411
4.4324
4.28579
4.02961
3.74801
3.47256
3.22311
3.00191
2.80585
2.63064
2.47259
2.32918
2.19877
2.08017
1.97225
1.87407
1.78475
1.70345
1.62938
1.56183
1.50019
1.44391
1.39252
1.34555
1.30264
1.26344
1.22769
1.19513
1.1656
1.1389
1.11488
1.0934
1.07427
1.05723
1.04205
1.02872
1.01704
1.00684
0.997897
0.99015
0.983743
0.978001
0.973427
0.969815
0.966965
0.965893
0.965822
0.966199
0.967328
0.969784
0.974748
0.98141
0.989211
0.997922
1.00755
1.01781
1.02805
1.03806
1.04737
1.05564
1.06254
1.06726
1.07014
1.07131
1.07147
1.07137
1.07051
1.06629
1.05513
1.045
1.03651
1.0291
1.02274
1.01744
1.01316
1.00976
1.00706
1.00503
1.00356
1.00249
1.00171
1.00116
1.00077
1.00051
1.00033
1.00021
1.00013
1.00008
1.00005
1.00003
1.00002
1.00001
1.00001
1
1.03007
1.08151
1.20097
1.49969
2.15228
3.53474
4.17225
4.30845
4.26461
4.14991
3.94217
3.68403
3.42583
3.19082
2.9817
2.79538
2.62794
2.47639
2.33877
2.21373
2.10003
1.9966
1.90242
1.81652
1.7381
1.66643
1.60088
1.5409
1.486
1.43572
1.38969
1.34756
1.30914
1.27414
1.24237
1.21361
1.18767
1.16431
1.14329
1.12445
1.10776
1.09295
1.07982
1.06816
1.05791
1.04894
1.04115
1.0345
1.02893
1.02462
1.02121
1.01898
1.01871
1.0188
1.01932
1.02068
1.0236
1.02846
1.03459
1.04152
1.04895
1.05681
1.06465
1.07211
1.07873
1.08384
1.08773
1.08989
1.09066
1.09064
1.09009
1.08566
1.0741
1.0633
1.05326
1.04387
1.03535
1.0279
1.0216
1.01643
1.01229
1.00906
1.00655
1.00465
1.00328
1.00228
1.00156
1.00105
1.0007
1.00046
1.0003
1.00019
1.00012
1.00007
1.00005
1.00003
1.00002
1.00001
1.00001
1
1.01123
1.02767
1.0732
1.18243
1.44758
2.03012
3.26535
3.94647
4.12978
4.10697
4.02439
3.86535
3.62862
3.39013
3.17105
2.97372
2.79578
2.63464
2.48841
2.35574
2.2354
2.12609
2.0266
1.93584
1.8529
1.77698
1.70741
1.64362
1.58513
1.53151
1.48242
1.43749
1.39639
1.35889
1.3248
1.29386
1.26578
1.24038
1.21759
1.19716
1.17877
1.16226
1.14749
1.13432
1.12262
1.11229
1.10328
1.09541
1.08888
1.08344
1.07922
1.07612
1.07444
1.07423
1.07439
1.07499
1.07644
1.07954
1.08421
1.08939
1.09498
1.10059
1.10582
1.11033
1.11397
1.11624
1.11738
1.11757
1.11657
1.11061
1.09884
1.08754
1.07588
1.06431
1.05329
1.0432
1.03432
1.02676
1.02051
1.01546
1.01148
1.00839
1.00605
1.0043
1.003
1.00208
1.00142
1.00096
1.00064
1.00042
1.00027
1.00017
1.00011
1.00007
1.00004
1.00002
1.00001
1.00001
1.00001
1
1.0037
1.00908
1.02455
1.06072
1.15716
1.3783
1.87395
2.92608
3.70793
3.95684
3.95415
3.89646
3.77526
3.57012
3.36159
3.16295
2.97787
2.80724
2.65132
2.50962
2.38119
2.26478
2.15906
2.06279
1.97489
1.89443
1.82066
1.75298
1.69087
1.63384
1.58148
1.53349
1.48957
1.44941
1.41274
1.37943
1.34929
1.32203
1.29727
1.27485
1.25459
1.23632
1.21988
1.20514
1.19195
1.18025
1.16992
1.1609
1.15317
1.14676
1.14144
1.13734
1.13482
1.13298
1.13278
1.13295
1.13352
1.13489
1.13775
1.14119
1.14441
1.14761
1.14998
1.15174
1.15251
1.15233
1.14969
1.1417
1.13143
1.11953
1.10614
1.09208
1.07811
1.06485
1.05273
1.04205
1.03292
1.02535
1.01921
1.01434
1.01056
1.00766
1.00549
1.00388
1.00271
1.00187
1.00127
1.00085
1.00057
1.00037
1.00024
1.00015
1.0001
1.00006
1.00004
1.00002
1.00001
1.00001
1.00001
1
1.00112
1.00282
1.00758
1.0187
1.05024
1.12326
1.30485
1.6964
2.53465
3.47295
3.76783
3.81336
3.77069
3.66948
3.51385
3.34136
3.16414
2.99145
2.82852
2.67826
2.54135
2.41701
2.30406
2.20121
2.10733
2.02142
1.94265
1.87036
1.80399
1.74302
1.68706
1.63566
1.58856
1.54563
1.50658
1.47097
1.43849
1.40891
1.38199
1.35754
1.33538
1.31531
1.29717
1.28082
1.26614
1.25301
1.24136
1.23109
1.22218
1.2146
1.20821
1.20303
1.19932
1.19657
1.19433
1.19366
1.19371
1.19398
1.19466
1.19572
1.1965
1.19674
1.19637
1.19432
1.18929
1.18199
1.17196
1.15919
1.14419
1.12775
1.11073
1.09394
1.07805
1.06352
1.05067
1.03972
1.03064
1.02329
1.01745
1.0129
1.00942
1.00679
1.00483
1.0034
1.00236
1.00162
1.0011
1.00074
1.00049
1.00032
1.00021
1.00013
1.00008
1.00005
1.00003
1.00002
1.00001
1.00001
1
1
1.0003
1.00085
1.00203
1.00574
1.0136
1.03799
1.09055
1.22995
1.52329
2.1549
3.20683
3.54611
3.66718
3.64012
3.56291
3.4526
3.31655
3.1638
3.00758
2.85608
2.71361
2.58217
2.46167
2.35142
2.25052
2.15826
2.07369
1.99613
1.92495
1.85965
1.79979
1.74503
1.69491
1.64898
1.60696
1.56858
1.53354
1.50159
1.47246
1.44593
1.42181
1.39988
1.37999
1.36198
1.34572
1.3311
1.31802
1.30639
1.29615
1.28727
1.27964
1.27325
1.26816
1.26402
1.26034
1.25778
1.2563
1.25478
1.25323
1.25135
1.2487
1.2448
1.23909
1.23102
1.22016
1.20634
1.18979
1.17113
1.15116
1.1308
1.11083
1.09188
1.07453
1.05932
1.04645
1.03582
1.02725
1.02045
1.01515
1.0111
1.00803
1.00575
1.00407
1.00285
1.00197
1.00135
1.00092
1.00062
1.00041
1.00027
1.00017
1.00011
1.00007
1.00004
1.00003
1.00002
1.00001
1.00001
1
1
1.00009
1.00021
1.00058
1.00143
1.00389
1.0096
1.02576
1.06387
1.15881
1.36632
1.8142
2.68062
3.28473
3.48572
3.49451
3.45858
3.3794
3.27656
3.15315
3.01914
2.88468
2.75396
2.63006
2.51435
2.40723
2.30846
2.2177
2.13435
2.05787
1.98778
1.92343
1.86434
1.81019
1.76064
1.71537
1.67402
1.63625
1.60174
1.57021
1.54143
1.51516
1.4912
1.46937
1.44951
1.43147
1.41514
1.40041
1.38719
1.37543
1.36502
1.35589
1.34797
1.34114
1.33508
1.32943
1.32463
1.32069
1.31625
1.31109
1.30502
1.29748
1.28784
1.27559
1.26037
1.2422
1.22145
1.1988
1.17505
1.15095
1.12716
1.10461
1.0843
1.06679
1.05214
1.04013
1.03048
1.02286
1.01695
1.01244
1.00903
1.00649
1.00461
1.00325
1.00227
1.00157
1.00107
1.00073
1.00049
1.00032
1.00021
1.00014
1.00009
1.00006
1.00004
1.00002
1.00001
1.00001
1
1
1
1.00002
1.00005
1.00013
1.00036
1.00092
1.00242
1.00621
1.01604
1.04077
1.10203
1.23657
1.53279
2.13078
2.96158
3.2376
3.36415
3.34494
3.29354
3.21569
3.12384
3.01765
2.90558
2.79203
2.68008
2.57234
2.47032
2.37485
2.28615
2.20414
2.12863
2.05924
1.99551
1.93707
1.88356
1.83463
1.78989
1.74895
1.71145
1.6771
1.64563
1.61681
1.5904
1.56623
1.54414
1.52401
1.50566
1.48899
1.47387
1.46021
1.44787
1.43673
1.42663
1.41734
1.4085
1.39999
1.39217
1.38424
1.37503
1.36452
1.35225
1.3377
1.32042
1.30028
1.27745
1.25236
1.22557
1.19746
1.16851
1.14005
1.11389
1.09106
1.07173
1.05571
1.0427
1.03233
1.02421
1.01794
1.01317
1.00957
1.0069
1.00493
1.00349
1.00245
1.0017
1.00117
1.0008
1.00054
1.00036
1.00024
1.00016
1.0001
1.00007
1.00004
1.00003
1.00002
1.00001
1.00001
1
1
1
1
1.00001
1.00003
1.00008
1.00021
1.00056
1.00136
1.00374
1.00901
1.02454
1.05806
1.14411
1.31517
1.67661
2.35733
2.97324
3.13423
3.21594
3.19456
3.14214
3.07032
2.99274
2.90549
2.81274
2.71753
2.62275
2.53015
2.44149
2.35772
2.2793
2.20632
2.13865
2.0761
2.01848
1.96555
1.91694
1.87229
1.83124
1.79349
1.75878
1.72688
1.69753
1.67063
1.64596
1.62331
1.60246
1.58327
1.56564
1.54939
1.53431