/*--------------------------------*- C++ -*----------------------------------*\
  =========                 |
  \\      /  F ield         | OpenFOAM: The Open Source CFD Toolbox
   \\    /   O peration     | Website:  https://openfoam.org
    \\  /    A nd           | Version:  13
     \\/     M anipulation  |
\*---------------------------------------------------------------------------*/
FoamFile
{
    format      ascii;
    class       surfaceScalarField;
    location    "0.5";
    object      phi;
}
// * * * * * * * * * * * * * * * * * * * * * * * * * * * * * * * * * * * * * //

dimensions      [1 0 -1 0 0 0 0];

internalField   nonuniform List<scalar> 
10325
(
0.0840003
4.16863e-11
0.0840003
2.69163e-10
0.0840004
9.17233e-10
0.0840002
2.75616e-09
0.0840005
7.2425e-09
0.0839994
1.96973e-08
0.0840013
5.00572e-08
0.0839944
1.32559e-07
0.0840049
3.37356e-07
0.0839654
8.8257e-07
0.0840128
2.25527e-06
0.0838313
5.86157e-06
0.0839113
1.53437e-05
0.0833524
4.16689e-05
0.0829541
0.000124359
0.0812667
0.000427291
0.0756306
0.00185332
0.0571704
0.00948792
0.0531764
0.00812008
0.0454812
0.00746954
0.0365202
0.00795517
0.0266303
0.00890152
0.0159951
0.00942846
0.00716842
0.00898396
0.00860228
0.0840003
1.00541e-10
0.0840003
4.9379e-10
0.0840004
2.03582e-09
0.0840002
5.08191e-09
0.0840005
1.53822e-08
0.0839994
3.69409e-08
0.0840012
1.04052e-07
0.0839946
2.47731e-07
0.0840047
7.20672e-07
0.0839662
1.64594e-06
0.084012
4.80983e-06
0.083834
1.1222e-05
0.0839099
3.17743e-05
0.0833556
8.31038e-05
0.0829521
0.0002513
0.081261
0.000854573
0.0756781
0.00366192
0.0572629
0.0187354
0.0532198
0.0163789
0.0457452
0.0147742
0.0368011
0.0159277
0.02698
0.0177532
0.0165113
0.0187159
0.00760139
0.0180244
0.0175992
0.0840003
1.19293e-10
0.0840003
7.53319e-10
0.0840003
2.6094e-09
0.0840002
7.66905e-09
0.0840005
2.06271e-08
0.0839994
5.44801e-08
0.0840013
1.42195e-07
0.0839945
3.70321e-07
0.0840058
9.63595e-07
0.0839654
2.49836e-06
0.0840198
6.55009e-06
0.0838251
1.69129e-05
0.0839367
4.49694e-05
0.08335
0.000122237
0.0829903
0.000363758
0.0813123
0.00123994
0.0759415
0.00526709
0.0580426
0.0270696
0.0540039
0.0248411
0.0466444
0.0221018
0.0377577
0.0239125
0.0279515
0.0266283
0.0174211
0.0281457
0.00813662
0.0273574
0.0270505
0.0840003
1.4488e-10
0.0840003
9.41055e-10
0.0840003
3.20013e-09
0.0840002
9.48094e-09
0.0840004
2.52639e-08
0.0839995
6.66698e-08
0.0840012
1.73457e-07
0.0839949
4.52389e-07
0.0840056
1.17673e-06
0.0839676
3.06703e-06
0.0840206
8.0539e-06
0.0838323
2.09716e-05
0.0839475
5.58511e-05
0.0833721
0.000152666
0.0830404
0.00045343
0.0814419
0.00154096
0.0763984
0.00649978
0.0597089
0.0337215
0.0556795
0.0335212
0.0483263
0.0296263
0.0394474
0.0320009
0.0296019
0.0356283
0.018771
0.0380277
0.00888163
0.0371525
0.0371037
0.0840003
1.67253e-10
0.0840003
1.08264e-09
0.0840003
3.69173e-09
0.0840002
1.07996e-08
0.0840004
2.87884e-08
0.0839996
7.44054e-08
0.0840012
1.94179e-07
0.0839955
4.98966e-07
0.0840056
1.29867e-06
0.0839706
3.3723e-06
0.084022
8.92917e-06
0.0838437
2.31723e-05
0.0839641
6.26315e-05
0.0834093
0.000170691
0.0831193
0.000509594
0.08165
0.00172171
0.0769623
0.00722876
0.0626305
0.0377107
0.0584256
0.042533
0.05075
0.0376573
0.0417635
0.0403824
0.0318691
0.0447925
0.0206606
0.0484375
0.00991929
0.0476565
0.0480495
0.0840003
1.87468e-10
0.0840003
1.21627e-09
0.0840003
4.10706e-09
0.0840002
1.19969e-08
0.0840004
3.1079e-08
0.0839997
8.13005e-08
0.0840011
2.04868e-07
0.0839961
5.21266e-07
0.0840057
1.33714e-06
0.0839739
3.43672e-06
0.0840257
8.95268e-06
0.0838583
2.35185e-05
0.0839933
6.309e-05
0.0834718
0.000173126
0.0832546
0.000516767
0.0819886
0.00172814
0.077779
0.00717688
0.06741
0.0377338
0.0623205
0.0515647
0.0539427
0.046831
0.0446804
0.0492285
0.0347196
0.0540361
0.0230552
0.0594159
0.0113378
0.059016
0.0602805
0.0840003
2.07923e-10
0.0840003
1.35717e-09
0.0840003
4.56345e-09
0.0840003
1.32967e-08
0.0840004
3.43901e-08
0.0839998
8.90291e-08
0.0840009
2.24555e-07
0.0839968
5.51012e-07
0.0840052
1.41857e-06
0.0839784
3.40867e-06
0.0840264
9.00083e-06
0.083884
2.2018e-05
0.0840269
5.91529e-05
0.0835715
0.000156314
0.083467
0.000459931
0.0824782
0.00150216
0.0791828
0.00605927
0.0743819
0.0321965
0.0676913
0.0612353
0.0577497
0.0573662
0.0480673
0.0584441
0.0380893
0.063418
0.0262215
0.0706803
0.0133234
0.0713929
0.0743497
0.0840003
2.37643e-10
0.0840003
1.52909e-09
0.0840003
5.047e-09
0.0840003
1.4868e-08
0.0840004
3.74536e-08
0.0839999
9.78177e-08
0.0840007
2.38155e-07
0.0839975
6.05991e-07
0.0840036
1.48621e-06
0.0839825
3.73055e-06
0.0840209
9.25733e-06
0.0839065
2.30224e-05
0.084043
5.87175e-05
0.0836822
0.000150097
0.0837328
0.000419801
0.0831476
0.00127439
0.0815113
0.00461741
0.0830455
0.0229255
0.073221
0.0718002
0.061305
0.0690705
0.0518382
0.067497
0.0419365
0.0731383
0.0302739
0.0819204
0.0162141
0.0847246
0.0911026
0.0840003
2.3644e-10
0.0840003
1.53074e-09
0.0840003
5.17136e-09
0.0840003
1.50712e-08
0.0840003
3.90734e-08
0.0840001
1.02225e-07
0.0840004
2.52902e-07
0.0839982
6.46961e-07
0.0840021
1.58626e-06
0.0839858
4.0309e-06
0.0840136
9.8894e-06
0.0839225
2.50846e-05
0.0840274
6.25734e-05
0.0837363
0.00016102
0.0837626
0.000435153
0.0831991
0.00129119
0.0816797
0.00432882
0.0827361
0.0189519
0.0748279
0.075421
0.0643308
0.0781369
0.0561306
0.0755221
0.0468665
0.082382
0.0362484
0.0922525
0.0212487
0.0989338
0.112673
0.0840003
2.2644e-10
0.0840003
1.47743e-09
0.0840003
4.9974e-09
0.0840003
1.45863e-08
0.0840003
3.82858e-08
0.0840001
1.00366e-07
0.0840003
2.51473e-07
0.0839984
6.46274e-07
0.0840018
1.59516e-06
0.0839876
4.08534e-06
0.0840116
1.00174e-05
0.0839313
2.56321e-05
0.084028
6.34575e-05
0.0837583
0.000163883
0.0838191
0.000434688
0.0832944
0.00127063
0.0826538
0.00418511
0.082861
0.0169596
0.0750545
0.0774487
0.0689435
0.0830659
0.0609372
0.0834852
0.0536543
0.0894546
0.0448342
0.101044
0.0292887
0.113682
0.14217
0.0840003
1.93949e-10
0.0840003
1.348e-09
0.0840003
4.41357e-09
0.0840003
1.34626e-08
0.0840003
3.40806e-08
0.0840001
9.45265e-08
0.0840004
2.23514e-07
0.0839987
6.25571e-07
0.0840017
1.42576e-06
0.0839891
4.0308e-06
0.084011
9.07093e-06
0.0839367
2.57014e-05
0.0840368
5.88392e-05
0.0837559
0.000163316
0.0838876
0.0004133
0.083358
0.00120894
0.0830597
0.0039388
0.0834471
0.0157
0.0792455
0.075025
0.0730154
0.0886535
0.066588
0.0894737
0.0616691
0.0943627
0.0577046
0.105219
0.0560234
0.114747
0.114337
0.0838538
0.0840003
1.82415e-10
0.0840003
1.14316e-09
0.0840003
3.89493e-09
0.0840003
1.14856e-08
0.0840004
2.99613e-08
0.0840001
7.93695e-08
0.0840006
2.04802e-07
0.0839989
5.08124e-07
0.0840015
1.37417e-06
0.0839926
3.22656e-06
0.0840043
9.07863e-06
0.0839599
2.0809e-05
0.0840023
5.90344e-05
0.0838282
0.000140587
0.0838596
0.000394525
0.083444
0.00108597
0.0832241
0.0035361
0.0844857
0.0138359
0.08626
0.0652047
0.0806019
0.0940838
0.0738654
0.0958714
0.0713323
0.0974859
0.0708179
0.105727
0.0731458
0.111935
0.106886
0.0802517
0.0840003
1.3808e-10
0.0840003
1.00875e-09
0.0840003
3.19103e-09
0.0840003
1.00057e-08
0.0840003
2.46199e-08
0.0840004
6.91562e-08
0.084
1.61043e-07
0.0840003
4.54902e-07
0.0839993
1.02103e-06
0.0839977
2.94731e-06
0.0839979
6.51103e-06
0.0839818
1.88376e-05
0.0839853
4.24488e-05
0.0839233
0.000119856
0.0838694
0.000294226
0.0837497
0.000847084
0.0838777
0.00256752
0.0862916
0.00965969
0.0968553
0.0452037
0.0904341
0.0999537
0.0829379
0.103553
0.081027
0.100998
0.0824338
0.105081
0.085297
0.108656
0.102991
0.0887254
0.0840003
1.39846e-10
0.0840003
7.73533e-10
0.0840003
2.97844e-09
0.0840003
7.65604e-09
0.0840003
2.27141e-08
0.0840003
5.31182e-08
0.0840001
1.50008e-07
0.0840005
3.47313e-07
0.0839984
9.54769e-07
0.0840024
2.25518e-06
0.0839874
6.01805e-06
0.0840155
1.45711e-05
0.0839309
3.79959e-05
0.0840475
9.46649e-05
0.0837818
0.000246624
0.0839627
0.000658491
0.0839
0.00193524
0.0858653
0.00661834
0.099188
0.0285296
0.0968495
0.100424
0.0935706
0.106288
0.0897367
0.106527
0.0911656
0.104877
0.0940541
0.105557
0.100149
0.0963209
0.0840003
1.05311e-10
0.0840003
6.43847e-10
0.0840003
2.26946e-09
0.0840003
6.43991e-09
0.0840004
1.74901e-08
0.0840002
4.46884e-08
0.0840005
1.1769e-07
0.0839997
2.91757e-07
0.084001
7.75583e-07
0.0839969
1.88169e-06
0.0840034
5.03926e-06
0.0839816
1.21371e-05
0.084009
3.25624e-05
0.0839144
7.89057e-05
0.0839877
0.000211265
0.0837172
0.000545812
0.0838489
0.00157222
0.0843139
0.00510174
0.0900872
0.0209294
0.0999064
0.0840186
0.0994875
0.106463
0.0973149
0.108902
0.0973648
0.105443
0.0995357
0.102744
0.0971794
0.101216
0.0840003
7.51556e-11
0.0840003
5.05871e-10
0.0840003
1.65957e-09
0.0840003
5.07549e-09
0.0840003
1.27831e-08
0.0840003
3.50057e-08
0.0840004
8.5422e-08
0.0839999
2.25923e-07
0.084001
5.58035e-07
0.0839974
1.44598e-06
0.0840053
3.64054e-06
0.0839818
9.25743e-06
0.0840291
2.37217e-05
0.0839043
6.00085e-05
0.0840764
0.000156354
0.0837291
0.000408249
0.084048
0.00114815
0.0844601
0.00355644
0.0898944
0.0136118
0.106533
0.0583145
0.10649
0.105944
0.104446
0.111042
0.102659
0.108286
0.103835
0.101589
0.0951223
0.105045
0.0840003
5.47902e-11
0.0840003
3.84327e-10
0.0840003
1.24781e-09
0.0840003
3.8213e-09
0.0840003
9.62373e-09
0.0840003
2.65033e-08
0.0840003
6.31993e-08
0.0840003
1.73885e-07
0.0840002
4.05058e-07
0.0839997
1.12124e-06
0.0840004
2.58947e-06
0.0839936
7.18549e-06
0.084006
1.66541e-05
0.083961
4.58476e-05
0.0840284
0.000109239
0.0839058
0.000296201
0.0841378
0.000771129
0.0847714
0.00227391
0.0891488
0.00771789
0.112147
0.0321062
0.112715
0.103365
0.113969
0.110267
0.111645
0.111134
0.108857
0.10424
0.0946407
0.108465
0.0840003
4.57745e-11
0.0840003
2.51352e-10
0.0840003
9.73342e-10
0.0840003
2.50794e-09
0.0840003
7.42484e-09
0.0840003
1.74364e-08
0.0840003
4.92102e-08
0.0840004
1.14027e-07
0.0839999
3.16801e-07
0.0840011
7.42892e-07
0.0839972
2.03201e-06
0.0840061
4.84374e-06
0.0839804
1.30613e-05
0.0840351
3.17962e-05
0.0839013
8.44792e-05
0.0841038
0.000213146
0.0837893
0.000571943
0.0842991
0.00160308
0.0856792
0.00514398
0.0953548
0.0205537
0.11588
0.075708
0.1182
0.107809
0.116964
0.112353
0.112702
0.108393
0.0951156
0.111455
0.0840003
2.65608e-11
0.0840003
1.93424e-10
0.0840003
6.01931e-10
0.0840003
1.9316e-09
0.0840003
4.65895e-09
0.0840003
1.32624e-08
0.0840004
3.11175e-08
0.0840002
8.58011e-08
0.0840006
2.02668e-07
0.0839995
5.4586e-07
0.0840024
1.31689e-06
0.0839953
3.46487e-06
0.0840128
8.51181e-06
0.0839741
2.20129e-05
0.0840645
5.51489e-05
0.0839057
0.0001412
0.0842236
0.000363838
0.0841143
0.000984188
0.0857725
0.0028939
0.0930467
0.0102609
0.119433
0.0402544
0.121811
0.104523
0.124684
0.109979
0.121623
0.111608
0.100569
0.115942
0.0840003
2.04055e-11
0.0840003
1.15273e-10
0.0840003
4.36357e-10
0.0840003
1.15349e-09
0.0840003
3.3506e-09
0.0840003
8.03111e-09
0.0840003
2.22133e-08
0.0840004
5.25686e-08
0.0840001
1.4339e-07
0.0840008
3.41038e-07
0.0839991
9.17075e-07
0.0840037
2.21565e-06
0.0839929
5.86623e-06
0.0840199
1.44092e-05
0.0839607
3.76471e-05
0.084091
9.43115e-05
0.0838809
0.000246155
0.0842935
0.000642386
0.0844538
0.00181911
0.0880841
0.0058191
0.102834
0.0229095
0.12503
0.0758581
0.127021
0.107537
0.12755
0.111088
0.107509
0.121092
0.0840003
1.1438e-11
0.0840003
7.76453e-11
0.0840003
2.58914e-10
0.0840003
7.80344e-10
0.0840003
2.00322e-09
0.0840003
5.45073e-09
0.0840003
1.32889e-08
0.0840003
3.5854e-08
0.0840004
8.5626e-08
0.0840002
2.32843e-07
0.0840008
5.50645e-07
0.0839992
1.49716e-06
0.0840042
3.53471e-06
0.0839928
9.56075e-06
0.0840275
2.26543e-05
0.083965
6.09226e-05
0.0841393
0.000146937
0.0839929
0.000393428
0.0846658
0.00102928
0.0862431
0.00304406
0.0959641
0.0106635
0.124272
0.03893
0.130477
0.1002
0.134127
0.107647
0.111602
0.130112
0.0840003
7.4822e-12
0.0840003
4.5604e-11
0.0840003
1.61958e-10
0.0840003
4.59055e-10
0.0840003
1.25126e-09
0.0840003
3.19451e-09
0.0840003
8.40651e-09
0.0840003
2.07373e-08
0.0840003
5.51459e-08
0.0840004
1.32742e-07
0.0840003
3.57368e-07
0.0840008
8.49832e-07
0.0839994
2.30663e-06
0.0840051
5.43987e-06
0.0839917
1.48473e-05
0.0840341
3.5029e-05
0.0839664
9.53847e-05
0.0841536
0.000231638
0.0841093
0.000630089
0.0850427
0.00171747
0.0889266
0.00546349
0.104915
0.0204965
0.131527
0.0661252
0.13397
0.104049
0.107438
0.137442
0.0840003
4.18856e-12
0.0840003
2.62274e-11
0.0840003
9.3261e-11
0.0840003
2.64677e-10
0.0840003
7.22606e-10
0.0840003
1.86072e-09
0.0840003
4.81984e-09
0.0840003
1.23218e-08
0.0840003
3.12227e-08
0.0840004
8.07661e-08
0.0840004
2.01064e-07
0.0840004
5.25024e-07
0.0840009
1.29054e-06
0.0839998
3.40965e-06
0.0840066
8.27027e-06
0.0839943
2.20835e-05
0.0840465
5.32603e-05
0.0840014
0.000142536
0.0842542
0.000351819
0.0845459
0.000957148
0.0867634
0.00269122
0.0967899
0.00908418
0.127338
0.0312461
0.137985
0.0895669
0.103966
0.140132
0.0840003
2.2181e-12
0.0840003
1.47703e-11
0.0840003
4.99958e-11
0.0840003
1.49465e-10
0.0840003
3.91621e-10
0.0840003
1.04979e-09
0.0840003
2.6441e-09
0.0840003
6.93873e-09
0.0840004
1.73182e-08
0.0840003
4.52434e-08
0.0840005
1.12467e-07
0.0840001
2.93058e-07
0.0840013
7.28791e-07
0.0839995
1.88227e-06
0.0840062
4.70492e-06
0.0839971
1.20383e-05
0.0840317
3.02846e-05
0.0839959
7.72293e-05
0.0841591
0.000196598
0.0841667
0.000510614
0.0851432
0.00138889
0.0886469
0.0041816
0.101977
0.0149837
0.132942
0.0482457
0.0951204
0.140026
0.0840003
1.18968e-12
0.0840003
7.71969e-12
0.0840003
2.63668e-11
0.0840003
7.84232e-11
0.0840003
2.06705e-10
0.0840003
5.53052e-10
0.0840003
1.41168e-09
0.0840003
3.65474e-09
0.0840003
9.37665e-09
0.0840003
2.3724e-08
0.0840004
6.16435e-08
0.0840003
1.52904e-07
0.0840006
4.03286e-07
0.0840007
9.81452e-07
0.0840011
2.6203e-06
0.0840043
6.28718e-06
0.0840018
1.6915e-05
0.0840303
4.04891e-05
0.0840194
0.000109276
0.0841841
0.000268003
0.0844022
0.000728188
0.0859877
0.00200375
0.0930413
0.00645431
0.116511
0.0222346
0.0641216
0.140822
0.0840003
5.97092e-13
0.0840003
3.76001e-12
0.0840003
1.33409e-11
0.0840003
3.84177e-11
0.0840003
1.05071e-10
0.0840003
2.73925e-10
0.0840003
7.17108e-10
0.0840003
1.83569e-09
0.0840003
4.74325e-09
0.0840003
1.21617e-08
0.0840003
3.09694e-08
0.0840004
7.99003e-08
0.0840004
2.01406e-07
0.0840005
5.21301e-07
0.0840013
1.30529e-06
0.0840005
3.39588e-06
0.0840089
8.44641e-06
0.0839989
2.20377e-05
0.0840619
5.47822e-05
0.0840294
0.000143317
0.0843621
0.00036323
0.0848184
0.000974846
0.0879155
0.00276713
0.0997914
0.00913233
0.0282257
0.130829
0.0840003
2.71659e-13
0.0840003
1.77889e-12
0.0840003
6.22602e-12
0.0840003
1.82698e-11
0.0840003
4.93964e-11
0.0840003
1.31861e-10
0.0840003
3.38549e-10
0.0840003
8.93769e-10
0.0840003
2.25703e-09
0.0840003
5.95203e-09
0.0840003
1.49093e-08
0.0840003
3.93306e-08
0.0840004
9.77618e-08
0.0840003
2.58331e-07
0.0840012
6.37734e-07
0.084
1.68636e-06
0.0840063
4.15409e-06
0.0839987
1.09546e-05
0.0840421
2.69906e-05
0.0840023
7.09325e-05
0.0842507
0.000176179
0.0842346
0.000465766
0.0855815
0.00122977
0.0894576
0.00364083
0.0120898
0.102253
0.0840003
1.18497e-13
0.0840003
7.98486e-13
0.0840003
2.72446e-12
0.0840003
8.23999e-12
0.0840003
2.19245e-11
0.0840003
5.96404e-11
0.0840003
1.52811e-10
0.0840003
4.06111e-10
0.0840003
1.02996e-09
0.0840003
2.72183e-09
0.0840003
6.8638e-09
0.0840003
1.80887e-08
0.0840004
4.56592e-08
0.0840003
1.19206e-07
0.0840008
3.01934e-07
0.0840003
7.81004e-07
0.0840031
1.97762e-06
0.0840013
5.08831e-06
0.0840161
1.28957e-05
0.0840135
3.29294e-05
0.0840882
8.40311e-05
0.0841298
0.000214905
0.0846048
0.000559175
0.0857112
0.00152428
0.00460529
0.0920184
0.0840003
5.13864e-14
0.0840003
3.29056e-13
0.0840003
1.15004e-12
0.0840003
3.42343e-12
0.0840003
9.28005e-12
0.0840003
2.50814e-11
0.0840003
6.55413e-11
0.0840003
1.72715e-10
0.0840003
4.50118e-10
0.0840003
1.16469e-09
0.0840003
3.04839e-09
0.0840003
7.77779e-09
0.0840004
2.04259e-08
0.0840003
5.15913e-08
0.0840005
1.36232e-07
0.0840005
3.39485e-07
0.0840011
9.02804e-07
0.0840022
2.21899e-06
0.084004
5.92478e-06
0.0840153
1.44483e-05
0.0840204
3.86154e-05
0.0841003
9.46331e-05
0.0841848
0.000252779
0.0847035
0.00064486
0.00181321
0.0865617
0.0840003
1.93237e-14
0.0840003
1.28462e-13
0.0840003
4.42268e-13
0.0840003
1.35749e-12
0.0840003
3.61524e-12
0.0840003
1.00679e-11
0.0840003
2.58061e-11
0.0840003
7.03625e-11
0.0840003
1.78611e-10
0.0840003
4.82721e-10
0.0840003
1.21747e-09
0.0840003
3.27543e-09
0.0840003
8.22256e-09
0.0840003
2.20464e-08
0.0840004
5.51333e-08
0.0840003
1.47098e-07
0.0840009
3.66935e-07
0.0840004
9.71542e-07
0.0840046
2.42657e-06
0.0840006
6.36077e-06
0.084029
1.60063e-05
0.0840053
4.15093e-05
0.0841747
0.000105948
0.0841334
0.000274171
0.000725773
0.08508
0.0840003
6.66112e-15
0.0840003
4.57594e-14
0.0840003
1.65904e-13
0.0840003
4.81567e-13
0.0840003
1.36308e-12
0.0840003
3.63341e-12
0.0840003
9.87757e-12
0.0840003
2.57453e-11
0.0840003
6.93321e-11
0.0840003
1.79514e-10
0.0840003
4.78053e-10
0.0840003
1.24038e-09
0.0840003
3.2503e-09
0.0840003
8.48492e-09
0.0840003
2.19055e-08
0.0840004
5.73458e-08
0.0840004
1.46486e-07
0.0840008
3.84961e-07
0.0840011
9.69355e-07
0.0840029
2.57072e-06
0.0840071
6.3748e-06
0.0840131
1.70396e-05
0.084051
4.19877e-05
0.0840923
0.000112866
0.000281991
0.0843548
0.0840003
2.12005e-15
0.0840003
1.43681e-14
0.0840003
5.2432e-14
0.0840003
1.6127e-13
0.0840003
4.62849e-13
0.0840003
1.24099e-12
0.0840003
3.41906e-12
0.0840003
9.01349e-12
0.0840003
2.42775e-11
0.0840003
6.3794e-11
0.0840003
1.70335e-10
0.0840003
4.44635e-10
0.0840003
1.18638e-09
0.0840003
3.05432e-09
0.0840003
8.18564e-09
0.0840003
2.07749e-08
0.0840004
5.57165e-08
0.0840005
1.40198e-07
0.0840006
3.75133e-07
0.0840017
9.37862e-07
0.0840018
2.50815e-06
0.0840107
6.23612e-06
0.084008
1.66488e-05
0.0840727
4.14974e-05
0.000110592
0.084072
0.0840003
7.04948e-16
0.0840003
4.25701e-15
0.0840003
1.67848e-14
0.0840003
5.01736e-14
0.0840003
1.46673e-13
0.0840003
4.00263e-13
0.0840003
1.08963e-12
0.0840003
2.9474e-12
0.0840003
7.85675e-12
0.0840003
2.11948e-11
0.0840003
5.58768e-11
0.0840003
1.50507e-10
0.0840003
3.92747e-10
0.0840003
1.05664e-09
0.0840003
2.73461e-09
0.0840003
7.32123e-09
0.0840004
1.88362e-08
0.0840003
5.01039e-08
0.0840006
1.28322e-07
0.0840004
3.38559e-07
0.0840022
8.69342e-07
0.0840014
2.26351e-06
0.0840117
5.85976e-06
0.0840099
1.50517e-05
3.93393e-05
0.0840729
0.0840003
1.3726e-16
0.0840003
1.36783e-15
0.0840003
6.44276e-15
0.0840003
1.78846e-14
0.0840003
4.58221e-14
0.0840003
1.26384e-13
0.0840003
3.25107e-13
0.0840003
9.13743e-13
0.0840003
2.36414e-12
0.0840003
6.58521e-12
0.0840003
1.71318e-11
0.0840003
4.67859e-11
0.0840003
1.23326e-10
0.0840003
3.28762e-10
0.0840003
8.76668e-10
0.0840003
2.29946e-09
0.0840003
6.13664e-09
0.0840004
1.59717e-08
0.0840004
4.22956e-08
0.0840005
1.10199e-07
0.0840007
2.87607e-07
0.0840013
7.53424e-07
0.0840031
1.94011e-06
0.0840061
5.09806e-06
1.30277e-05
0.0840215
0.0840003
2.09923e-15
0.0840003
3.7663e-15
0.0840003
5.46351e-15
0.0840003
8.53744e-15
0.0840003
1.71863e-14
0.0840003
3.86711e-14
0.0840003
9.81476e-14
0.0840003
2.53414e-13
0.0840003
7.01734e-13
0.0840003
1.83169e-12
0.0840003
5.05302e-12
0.0840003
1.34424e-11
0.0840003
3.59246e-11
0.0840003
9.75793e-11
0.0840003
2.53604e-10
0.0840003
6.98399e-10
0.0840003
1.77997e-09
0.0840003
4.92408e-09
0.0840004
1.24455e-08
0.0840004
3.4155e-08
0.0840005
8.63119e-08
0.0840007
2.34687e-07
0.0840013
5.92578e-07
0.0840026
1.59832e-06
4.02814e-06
0.0840068
0.0840003
6.44233e-16
0.0840003
1.4988e-15
0.0840003
2.12157e-15
0.0840003
2.96421e-15
0.0840003
4.27718e-15
0.0840003
1.02355e-14
0.0840003
2.56737e-14
0.0840003
6.83108e-14
0.0840003
1.84743e-13
0.0840003
5.06566e-13
0.0840003
1.33142e-12
0.0840003
3.68552e-12
0.0840003
9.75168e-12
0.0840003
2.64484e-11
0.0840003
7.08845e-11
0.0840003
1.87836e-10
0.0840003
5.09202e-10
0.0840003
1.32557e-09
0.0840003
3.60765e-09
0.0840004
9.29026e-09
0.0840003
2.52756e-08
0.0840005
6.4554e-08
0.0840005
1.7519e-07
0.0840014
4.45036e-07
1.20148e-06
0.0840015
0.0840003
4.02022e-16
0.0840003
8.55219e-16
0.0840003
1.7215e-15
0.0840003
2.90067e-15
0.0840003
3.67306e-15
0.0840003
5.79224e-15
0.0840003
1.03674e-14
0.0840003
2.1733e-14
0.0840003
4.93522e-14
0.0840003
1.28281e-13
0.0840003
3.50384e-13
0.0840003
9.15519e-13
0.0840003
2.54164e-12
0.0840003
6.70169e-12
0.0840003
1.82358e-11
0.0840003
4.88534e-11
0.0840003
1.29578e-10
0.0840003
3.51671e-10
0.0840003
9.15562e-10
0.0840003
2.5003e-09
0.0840003
6.43036e-09
0.0840003
1.75781e-08
0.0840004
4.4871e-08
0.0840005
1.22161e-07
3.11067e-07
0.0840011
0.0840003
-1.08355e-15
0.0840003
-1.28001e-15
0.0840003
-1.20303e-15
0.0840003
-9.1962e-16
0.0840003
1.99276e-16
0.0840003
1.72063e-15
0.0840003
2.81697e-15
0.0840003
5.35834e-15
0.0840003
1.33461e-14
0.0840003
3.15455e-14
0.0840003
8.30033e-14
0.0840003
2.27211e-13
0.0840003
5.93866e-13
0.0840003
1.643e-12
0.0840003
4.34334e-12
0.0840003
1.18267e-11
0.0840003
3.16083e-11
0.0840003
8.42675e-11
0.0840003
2.2755e-10
0.0840003
5.94996e-10
0.0840003
1.61921e-09
0.0840003
4.17832e-09
0.0840003
1.13829e-08
0.0840004
2.91829e-08
7.90111e-08
0.0840004
0.0840003
-8.949e-16
0.0840003
-2.24864e-15
0.0840003
-3.37794e-15
0.0840003
-3.33674e-15
0.0840003
-3.59717e-15
0.0840003
-3.37946e-15
0.0840003
-2.38915e-15
0.0840003
-2.02009e-15
0.0840003
-4.02673e-16
0.0840003
2.8224e-15
0.0840003
1.47697e-14
0.0840003
4.57277e-14
0.0840003
1.33416e-13
0.0840003
3.64277e-13
0.0840003
1.00243e-12
0.0840003
2.64997e-12
0.0840003
7.27183e-12
0.0840003
1.91407e-11
0.0840003
5.16482e-11
0.0840003
1.37992e-10
0.0840003
3.62291e-10
0.0840003
9.81604e-10
0.0840003
2.53469e-09
0.0840003
6.87988e-09
1.76657e-08
0.0840004
0.0840003
-6.22983e-16
0.0840003
-1.13212e-15
0.0840003
-1.16357e-15
0.0840003
-1.92012e-15
0.0840003
-2.33906e-15
0.0840003
-2.86294e-15
0.0840003
-3.36558e-15
0.0840003
-3.82138e-15
0.0840003
-3.77389e-15
0.0840003
-3.49568e-15
0.0840003
-1.09461e-15
0.0840003
5.287e-15
0.0840003
2.40398e-14
0.0840003
7.52577e-14
0.0840003
2.05914e-13
0.0840003
5.80681e-13
0.0840003
1.53033e-12
0.0840003
4.20195e-12
0.0840003
1.10582e-11
0.0840003
2.96579e-11
0.0840003
7.91576e-11
0.0840003
2.07224e-10
0.0840003
5.5829e-10
0.0840003
1.4421e-09
3.88396e-09
0.0840003
0.0840003
2.32887e-16
0.0840003
-6.26669e-17
0.0840003
-1.34007e-15
0.0840003
-2.48044e-15
0.0840003
-3.40071e-15
0.0840003
-5.12654e-15
0.0840003
-5.91129e-15
0.0840003
-6.48136e-15
0.0840003
-7.33875e-15
0.0840003
-7.19498e-15
0.0840003
-6.76781e-15
0.0840003
-5.802e-15
0.0840003
-1.13277e-15
0.0840003
9.15522e-15
0.0840003
3.81951e-14
0.0840003
1.10665e-13
0.0840003
3.15628e-13
0.0840003
8.40048e-13
0.0840003
2.29381e-12
0.0840003
6.02461e-12
0.0840003
1.61633e-11
0.0840003
4.25247e-11
0.0840003
1.12493e-10
0.0840003
2.97008e-10
7.73702e-10
0.0840003
0.0840003
-1.53957e-16
0.0840003
-1.47733e-15
0.0840003
-1.41228e-15
0.0840003
-1.64192e-15
0.0840003
-1.92099e-15
0.0840003
-2.29786e-15
0.0840003
-3.42933e-15
0.0840003
-3.61668e-15
0.0840003
-3.48831e-15
0.0840003
-3.06612e-15
0.0840003
-3.26779e-15
0.0840003
-2.88159e-15
0.0840003
-2.29851e-15
0.0840003
-7.23597e-16
0.0840003
5.80048e-15
0.0840003
2.01007e-14
0.0840003
5.98846e-14
0.0840003
1.65878e-13
0.0840003
4.41721e-13
0.0840003
1.19345e-12
0.0840003
3.11123e-12
0.0840003
8.34553e-12
0.0840003
2.17403e-11
0.0840003
5.71848e-11
1.50599e-10
0.0840003
0.0840003
-7.40076e-16
0.0840003
-2.81459e-16
0.0840003
-1.19891e-15
0.0840003
-2.23216e-15
0.0840003
-3.49482e-15
0.0840003
-4.77699e-15
0.0840003
-4.63084e-15
0.0840003
-4.8002e-15
0.0840003
-4.60005e-15
0.0840003
-5.2857e-15
0.0840003
-4.73493e-15
0.0840003
-4.94721e-15
0.0840003
-4.42463e-15
0.0840003
-2.9384e-15
0.0840003
-9.75782e-16
0.0840003
2.59601e-15
0.0840003
1.13583e-14
0.0840003
3.06721e-14
0.0840003
8.42462e-14
0.0840003
2.21501e-13
0.0840003
5.87502e-13
0.0840003
1.5309e-12
0.0840003
4.06678e-12
0.0840003
1.05389e-11
2.75742e-11
0.0840003
0.0840003
-1.25117e-16
0.0840003
-7.56556e-16
0.0840003
-1.14774e-15
0.0840003
-2.00035e-15
0.0840003
-2.60751e-15
0.0840003
-2.33993e-15
0.0840003
-2.3731e-15
0.0840003
-2.19876e-15
0.0840003
-3.10299e-15
0.0840003
-2.86815e-15
0.0840003
-3.10277e-15
0.0840003
-2.59385e-15
0.0840003
-2.11506e-15
0.0840003
-1.643e-15
0.0840003
-9.4781e-16
0.0840003
-7.33788e-16
0.0840003
1.03606e-15
0.0840003
4.30255e-15
0.0840003
1.34393e-14
0.0840003
3.60246e-14
0.0840003
1.03391e-13
0.0840003
2.71447e-13
0.0840003
7.1519e-13
0.0840003
1.88333e-12
4.84513e-12
0.0840003
0.0840003
-2.02746e-16
0.0840003
6.31006e-17
0.0840003
4.9071e-16
0.0840003
7.02563e-17
0.0840003
-6.27103e-16
0.0840003
-1.60158e-15
0.0840003
-3.02753e-15
0.0840003
-3.41936e-15
0.0840003
-3.56919e-15
0.0840003
-4.15271e-15
0.0840003
-4.38842e-15
0.0840003
-5.16319e-15
0.0840003
-5.74475e-15
0.0840003
-6.56441e-15
0.0840003
-7.66292e-15
0.0840003
-7.40792e-15
0.0840003
-6.94605e-15
0.0840003
-4.96283e-15
0.0840003
-3.06049e-15
0.0840003
1.51333e-15
0.0840003
1.29042e-14
0.0840003
4.19198e-14
0.0840003
1.19898e-13
0.0840003
3.17179e-13
8.346e-13
0.0840003
0.0840003
2.33537e-16
0.0840003
2.57173e-16
0.0840003
-4.23706e-16
0.0840003
-5.7029e-16
0.0840003
3.18755e-17
0.0840003
-2.42428e-16
0.0840003
-6.01949e-16
0.0840003
-1.28521e-15
0.0840003
-2.24972e-15
0.0840003
-2.97679e-15
0.0840003
-4.76485e-15
0.0840003
-5.45267e-15
0.0840003
-6.23546e-15
0.0840003
-7.65468e-15
0.0840003
-7.33094e-15
0.0840003
-7.47579e-15
0.0840003
-7.74923e-15
0.0840003
-8.91453e-15
0.0840003
-8.49581e-15
0.0840003
-7.48555e-15
0.0840003
-5.15126e-15
0.0840003
1.55865e-15
0.0840003
1.43822e-14
0.0840003
4.72831e-14
1.31095e-13
0.0840003
0.0840003
-1.89735e-16
0.0840003
6.28837e-17
0.0840003
8.13152e-17
0.0840003
6.46401e-16
0.0840003
8.75602e-16
0.0840003
8.38088e-16
0.0840003
4.47775e-16
0.0840003
-1.73039e-16
0.0840003
-6.68736e-16
0.0840003
-9.49111e-16
0.0840003
-1.3984e-15
0.0840003
-1.75467e-15
0.0840003
-2.20895e-15
0.0840003
-1.54043e-15
0.0840003
-1.96349e-15
0.0840003
-2.69598e-15
0.0840003
-3.58567e-15
0.0840003
-3.65463e-15
0.0840003
-3.91007e-15
0.0840003
-3.18474e-15
0.0840003
-2.71831e-15
0.0840003
-1.63237e-15
0.0840003
1.31102e-15
0.0840003
7.04666e-15
2.01e-14
0.0840003
0.0840003
-1.43332e-16
0.0840003
-1.25984e-16
0.0840003
9.66675e-16
0.0840003
1.9713e-15
0.0840003
2.4143e-15
0.0840003
3.36992e-15
0.0840003
3.86041e-15
0.0840003
4.31187e-15
0.0840003
5.31151e-15
0.0840003
3.96688e-15
0.0840003
2.80418e-15
0.0840003
2.42796e-15
0.0840003
1.01264e-15
0.0840003
-1.75641e-17
0.0840003
-2.98156e-16
0.0840003
-1.00874e-15
0.0840003
-1.36501e-15
0.0840003
-1.93357e-15
0.0840003
-2.44943e-15
0.0840003
-3.60237e-15
0.0840003
-3.82246e-15
0.0840003
-3.53298e-15
0.0840003
-2.76233e-15
0.0840003
-1.2104e-15
1.13256e-15
0.0840003
0.0840003
-8.0231e-18
0.0840003
-1.48969e-16
0.0840003
-7.8995e-16
0.0840003
-8.41775e-16
0.0840003
-5.22585e-16
0.0840003
-8.01876e-16
0.0840003
-2.95987e-16
0.0840003
-7.61977e-16
0.0840003
-9.65157e-16
0.0840003
-7.34005e-16
0.0840003
-1.86049e-16
0.0840003
-1.01048e-16
0.0840003
5.40583e-16
0.0840003
7.21645e-16
0.0840003
4.04624e-16
0.0840003
-2.91434e-16
0.0840003
-4.47775e-16
0.0840003
-1.05233e-15
0.0840003
-1.86223e-15
0.0840003
-2.33776e-15
0.0840003
-3.37382e-15
0.0840003
-3.63598e-15
0.0840003
-3.56334e-15
0.0840003
-3.75177e-15
-2.06866e-15
0.0840003
0.0840003
0.0840003
0.0840003
0.0840003
0.0840003
0.0840003
0.0840003
0.0840003
0.0840003
0.0840003
0.0840003
0.0840003
0.0840003
0.0840003
0.0840003
0.0840003
0.0840003
0.0840003
0.0840003
0.0840003
0.0840003
0.0840003
0.0840003
0.0840003
0.0840003
0.0451218
0.038889
0.0298686
0.0152498
0.0232354
0.00661602
0.0206002
0.00257931
0.0201769
0.000366434
0.0215428
-0.00142458
0.0233341
-0.00184925
0.0245977
-0.00132797
0.0252907
-0.000773852
0.0255062
-0.000298075
0.0253861
3.43457e-05
0.0250546
0.000237256
0.0248335
0.00012802
0.0247497
2.12063e-06
0.0248258
-0.000135185
0.024957
-0.000165814
0.0251136
-0.000175392
0.0252638
-0.000159166
0.0253944
-0.000133367
0.0255012
-0.000111119
0.0255816
-9.89472e-05
0.0256391
-9.68112e-05
0.0256854
-0.000101016
0.025734
-0.000106986
0.0257955
-0.000111452
0.0258792
-0.000113015
0.0259903
-0.000111514
0.0261234
-0.000107515
0.0262637
-0.000101914
0.0263953
-9.50243e-05
0.0265001
-8.78256e-05
0.0265645
-8.20884e-05
0.0266015
-7.64031e-05
0.0266274
-7.06093e-05
0.02663
-6.98461e-05
0.0266089
-7.30003e-05
0.0265945
-7.51323e-05
0.0266037
-7.69227e-05
0.0266461
-8.07524e-05
0.0267339
-8.7541e-05
0.026859
-9.67602e-05
0.0270627
-0.000107543
0.0274335
-0.000116757
0.0282331
-0.000124065
0.0293597
-0.000147877
0.0307834
-0.000172454
0.0325074
-0.000192126
0.0345317
-0.000214083
0.0368403
-0.000237853
0.0394016
-0.000262515
0.0421748
-0.000286907
0.0451097
-0.000310443
0.0481475
-0.000332665
0.051223
-0.000353032
0.054268
-0.000370968
0.0572169
-0.000385931
0.060013
-0.000397419
0.0626137
-0.000404978
0.064993
-0.000408172
0.0671439
-0.000406717
0.0690743
-0.000400576
0.0708019
-0.00039005
0.0723504
-0.000375703
0.0737491
-0.000358092
0.0750304
-0.000337797
0.0762257
-0.00031559
0.0773603
-0.000292076
0.0784482
-0.000267719
0.0794905
-0.000242951
0.0804767
-0.000218156
0.0813906
-0.000193584
0.0822171
-0.000169493
0.0829449
-0.000146357
0.0835682
-0.00012471
0.084092
-0.000104739
0.0845333
-8.63395e-05
0.0849021
-6.96884e-05
0.085194
-5.51551e-05
0.0854057
-4.28805e-05
0.0855251
-3.26252e-05
0.0854102
-2.38887e-05
0.0852984
-1.35635e-05
0.0851632
-7.66286e-06
0.0850033
-5.13547e-06
0.0848322
-3.75144e-06
0.0846654
-2.75014e-06
0.0845149
-1.76288e-06
0.0843873
-6.97357e-07
0.0842836
-1.99918e-07
0.0842017
-5.93563e-07
0.0841395
-7.60466e-07
0.0840941
-6.31922e-07
0.084062
-4.8803e-07
0.0840399
-3.65703e-07
0.0840251
-2.71244e-07
0.0840153
-2.00858e-07
0.0840091
-1.48623e-07
0.0840052
-1.10992e-07
0.0840028
-7.76202e-08
-4.41922e-08
0.0600576
0.0589582
0.0457472
0.0294045
0.0384536
0.0137787
0.0352072
0.00572541
0.0337706
0.00170851
0.0326239
-0.000334456
0.0318622
-0.00115316
0.0315988
-0.00117607
0.0316808
-0.000971897
0.0319468
-0.000686165
0.0322018
-0.000350018
0.0324298
-0.000117381
0.0324053
3.35893e-05
0.0321768
0.000126586
0.0318798
6.68525e-05
0.0316312
-4.5103e-06
0.0314807
-8.82418e-05
0.0314198
-0.000134883
0.0314098
-0.000145903
0.0314121
-0.000141683
0.0314019
-0.000134261