/*--------------------------------*- C++ -*----------------------------------*\
  =========                 |
  \\      /  F ield         | OpenFOAM: The Open Source CFD Toolbox
   \\    /   O peration     | Website:  https://openfoam.org
    \\  /    A nd           | Version:  13
     \\/     M anipulation  |
\*---------------------------------------------------------------------------*/
FoamFile
{
    format      ascii;
    class       volScalarField;
    location    "0.5";
    object      rho;
}
// * * * * * * * * * * * * * * * * * * * * * * * * * * * * * * * * * * * * * //

dimensions      [1 -3 0 0 0 0 0];

internalField   nonuniform List<scalar> 
5250
(
1.40001
1.40001
1.40001
1.40001
1.40003
1.40007
1.40015
1.40039
1.40097
1.40243
1.40626
1.41551
1.43943
1.49532
1.62544
1.90267
2.70877
5.3058
6.00535
5.75283
5.71449
5.74017
5.6217
5.14343
5.23077
1.40001
1.40001
1.40001
1.40001
1.40003
1.40006
1.40015
1.40038
1.40095
1.40238
1.40615
1.41522
1.43875
1.49373
1.62203
1.89535
2.68736
5.24735
6.01591
5.75325
5.71358
5.74008
5.62858
5.14857
5.23039
1.40001
1.40001
1.40001
1.40001
1.40003
1.40006
1.40014
1.40037
1.40089
1.40234
1.40581
1.41486
1.43701
1.49086
1.61457
1.88037
2.64258
5.11201
6.03822
5.75262
5.70518
5.73045
5.63211
5.14913
5.21971
1.40001
1.40001
1.40001
1.40001
1.40002
1.40006
1.40013
1.40035
1.40084
1.40221
1.40546
1.41404
1.43487
1.48601
1.60387
1.85741
2.57457
4.89598
6.07696
5.75492
5.6892
5.7106
5.63257
5.14206
5.19817
1.40001
1.40001
1.40001
1.40001
1.40002
1.40006
1.40012
1.40033
1.40077
1.40205
1.40502
1.41297
1.43214
1.47964
1.58979
1.82715
2.48504
4.59673
6.13035
5.7618
5.66601
5.68175
5.62651
5.13857
5.17059
1.40001
1.40001
1.40001
1.40001
1.40002
1.40005
1.40011
1.4003
1.4007
1.40187
1.4045
1.4118
1.42885
1.47217
1.5724
1.79037
2.37006
4.21976
6.18652
5.77175
5.63751
5.6417
5.60603
5.1228
5.12533
1.40001
1.40001
1.40001
1.40001
1.40002
1.40005
1.4001
1.40028
1.40063
1.4017
1.404
1.41055
1.42542
1.46396
1.55255
1.74881
2.22676
3.77676
6.22422
5.78957
5.60229
5.58736
5.56793
5.11067
5.06734
1.40001
1.40001
1.40001
1.40001
1.40002
1.40005
1.40009
1.40026
1.40055
1.40157
1.40348
1.40961
1.42221
1.45696
1.53335
1.70659
2.06419
3.27089
6.20438
5.791
5.54402
5.51809
5.50252
5.06827
4.9665
1.40001
1.40001
1.40001
1.40001
1.40002
1.40004
1.40008
1.40023
1.40048
1.40141
1.40305
1.40865
1.41947
1.45113
1.51792
1.67516
1.95149
2.96198
5.99995
5.73095
5.4627
5.42725
5.39844
5.00794
4.83445
1.40001
1.40001
1.40001
1.40001
1.40002
1.40004
1.40007
1.4002
1.40042
1.40121
1.40263
1.4075
1.41683
1.4447
1.503
1.64307
1.90972
2.7323
5.55806
5.57677
5.41782
5.30509
5.24532
4.89812
4.55429
1.40001
1.40001
1.40001
1.40001
1.40001
1.40003
1.40006
1.40016
1.40035
1.40101
1.40221
1.40627
1.4142
1.43791
1.48789
1.60945
1.86218
2.5403
4.99266
5.48497
5.3488
5.17214
5.06204
4.64703
3.82831
1.40001
1.40001
1.40001
1.40001
1.40001
1.40002
1.40005
1.40012
1.40031
1.40072
1.402
1.40458
1.41253
1.42929
1.47468
1.57326
1.79122
2.37575
4.29672
5.41779
5.27082
5.04065
4.88123
4.45737
3.61566
1.40001
1.40001
1.40001
1.40001
1.40001
1.40002
1.40004
1.4001
1.40022
1.40063
1.40135
1.40399
1.40871
1.42436
1.45591
1.54013
1.71288
2.18595
3.45199
5.32597
5.19154
4.91945
4.74935
4.3484
3.63027
1.40001
1.40001
1.40001
1.40001
1.40001
1.40002
1.40004
1.40007
1.4002
1.40042
1.40121
1.40268
1.40753
1.41719
1.44544
1.50557
1.64839
1.95171
2.75036
5.13782
5.09685
4.91101
4.64999
4.31747
3.74179
1.40001
1.40001
1.40001
1.40001
1.40001
1.40001
1.40003
1.40006
1.40014
1.40033
1.40088
1.40205
1.40562
1.41307
1.43448
1.48132
1.59477
1.8329
2.4478
4.54403
4.96578
4.85766
4.59079
4.26307
3.80157
1.40001
1.40001
1.40001
1.40001
1.40001
1.40001
1.40002
1.40004
1.40009
1.40025
1.40057
1.40158
1.40372
1.40996
1.42393
1.46097
1.54473
1.73025
2.22523
3.6027
4.85401
4.78369
4.56263
4.22357
3.83204
1.40001
1.40001
1.40001
1.40001
1.40001
1.40001
1.40001
1.40003
1.40007
1.40018
1.40039
1.40114
1.40247
1.40716
1.416
1.44323
1.49961
1.63657
1.93163
2.60843
4.67067
4.71738
4.59012
4.26256
3.87383
1.40001
1.40001
1.40001
1.40001
1.40001
1.40001
1.40001
1.40002
1.40005
1.40011
1.40031
1.40067
1.40191
1.40437
1.41196
1.42814
1.47198
1.56802
1.78143
2.29006
4.01734
4.61908
4.53625
4.28394
3.89942
1.40001
1.40001
1.40001
1.40001
1.40001
1.40001
1.40001
1.40002
1.40003
1.40008
1.40018
1.40047
1.40115
1.40296
1.40736
1.41854
1.44561
1.51121
1.65622
1.98252
2.82515
4.46542
4.45548
4.33275
3.99244
1.40001
1.40001
1.40001
1.40001
1.40001
1.40001
1.40001
1.40001
1.40002
1.40005
1.40012
1.40029
1.40075
1.40186
1.40471
1.41185
1.4296
1.47225
1.57328
1.78395
2.28724
3.93677
4.38657
4.32068
4.1038
1.40001
1.40001
1.40001
1.40001
1.40001
1.40001
1.40001
1.40001
1.40002
1.40004
1.40007
1.40019
1.40042
1.4012
1.40267
1.40746
1.41706
1.44516
1.50494
1.64811
1.94256
2.72362
4.23072
4.27637
4.17078
1.40001
1.40001
1.40001
1.40001
1.40001
1.40001
1.40001
1.40001
1.40001
1.40002
1.40005
1.4001
1.40029
1.40061
1.40181
1.40392
1.41128
1.4255
1.46708
1.55534
1.75032
2.19431
3.63066
4.17983
4.15084
1.40001
1.40001
1.40001
1.40001
1.40001
1.40001
1.40001
1.40001
1.40001
1.40002
1.40003
1.40007
1.40014
1.40041
1.40087
1.40259
1.40557
1.41603
1.4357
1.49296
1.60818
1.84495
2.40858
3.961
4.1062
1.40001
1.40001
1.40001
1.40001
1.40001
1.40001
1.40001
1.40001
1.40001
1.40001
1.40002
1.40004
1.40009
1.4002
1.40053
1.40124
1.4034
1.4079
1.4213
1.45006
1.52561
1.6782
2.02694
3.0473
3.971
1.40001
1.40001
1.40001
1.40001
1.40001
1.40001
1.40001
1.40001
1.40001
1.40001
1.40001
1.40002
1.40005
1.4001
1.40029
1.40063
1.40186
1.40404
1.41172
1.42645
1.46982
1.56175
1.75034
2.1754
3.49566
1.40001
1.40001
1.40001
1.40001
1.40001
1.40001
1.40001
1.40001
1.40001
1.40001
1.40001
1.40001
1.40002
1.40006
1.40013
1.40038
1.4008
1.40238
1.40517
1.41487
1.43331
1.48709
1.59403
1.79231
2.31845
1.40001
1.40001
1.40001
1.40001
1.40001
1.40001
1.40001
1.40001
1.40001
1.40001
1.40001
1.40001
1.40001
1.40003
1.40006
1.40018
1.40039
1.40113
1.40254
1.40705
1.41632
1.44302
1.50061
1.63125
1.88478
1.40001
1.40001
1.40001
1.40001
1.40001
1.40001
1.40001
1.40001
1.40001
1.40001
1.40001
1.40001
1.40001
1.40002
1.40004
1.40008
1.4002
1.40047
1.40129
1.403
1.40826
1.41927
1.45065
1.51959
1.66478
1.40001
1.40001
1.40001
1.40001
1.40001
1.40001
1.40001
1.40001
1.40001
1.40001
1.40001
1.40001
1.40001
1.40001
1.40002
1.40004
1.40009
1.4002
1.40059
1.40128
1.4038
1.40831
1.42383
1.45403
1.53862
1.40001
1.40001
1.40001
1.40001
1.40001
1.40001
1.40001
1.40001
1.40001
1.40001
1.40001
1.40001
1.40001
1.40001
1.40001
1.40002
1.40004
1.4001
1.40022
1.40061
1.40142
1.4039
1.40938
1.42474
1.45992
1.40001
1.40001
1.40001
1.40001
1.40001
1.40001
1.40001
1.40001
1.40001
1.40001
1.40001
1.40001
1.40001
1.40001
1.40001
1.40001
1.40002
1.40004
1.40009
1.40025
1.40055
1.40163
1.40355
1.41052
1.42352
1.40001
1.40001
1.40001
1.40001
1.40001
1.40001
1.40001
1.40001
1.40001
1.40001
1.40001
1.40001
1.40001
1.40001
1.40001
1.40001
1.40001
1.40002
1.40004
1.40008
1.40024
1.40052
1.40157
1.40344
1.41014
1.40001
1.40001
1.40001
1.40001
1.40001
1.40001
1.40001
1.40001
1.40001
1.40001
1.40001
1.40001
1.40001
1.40001
1.40001
1.40001
1.40001
1.40001
1.40002
1.40004
1.40008
1.4002
1.40053
1.40128
1.40351
1.40001
1.40001
1.40001
1.40001
1.40001
1.40001
1.40001
1.40001
1.40001
1.40001
1.40001
1.40001
1.40001
1.40001
1.40001
1.40001
1.40001
1.40001
1.40001
1.40002
1.40003
1.40008
1.40016
1.40048
1.40104
1.40001
1.40001
1.40001
1.40001
1.40001
1.40001
1.40001
1.40001
1.40001
1.40001
1.40001
1.40001
1.40001
1.40001
1.40001
1.40001
1.40001
1.40001
1.40001
1.40001
1.40001
1.40003
1.40005
1.40015
1.40033
1.40001
1.40001
1.40001
1.40001
1.40001
1.40001
1.40001
1.40001
1.40001
1.40001
1.40001
1.40001
1.40001
1.40001
1.40001
1.40001
1.40001
1.40001
1.40001
1.40001
1.40001
1.40001
1.40002
1.40004
1.40011
1.40001
1.40001
1.40001
1.40001
1.40001
1.40001
1.40001
1.40001
1.40001
1.40001
1.40001
1.40001
1.40001
1.40001
1.40001
1.40001
1.40001
1.40001
1.40001
1.40001
1.40001
1.40001
1.40001
1.40002
1.40003
1.40001
1.40001
1.40001
1.40001
1.40001
1.40001
1.40001
1.40001
1.40001
1.40001
1.40001
1.40001
1.40001
1.40001
1.40001
1.40001
1.40001
1.40001
1.40001
1.40001
1.40001
1.40001
1.40001
1.40001
1.40001
1.40001
1.40001
1.40001
1.40001
1.40001
1.40001
1.40001
1.40001
1.40001
1.40001
1.40001
1.40001
1.40001
1.40001
1.40001
1.40001
1.40001
1.40001
1.40001
1.40001
1.40001
1.40001
1.40001
1.40001
1.40001
1.40001
1.40001
1.40001
1.40001
1.40001
1.40001
1.40001
1.40001
1.40001
1.40001
1.40001
1.40001
1.40001
1.40001
1.40001
1.40001
1.40001
1.40001
1.40001
1.40001
1.40001
1.40001
1.40001
1.40001
1.40001
1.40001
1.40001
1.40001
1.40001
1.40001
1.40001
1.40001
1.40001
1.40001
1.40001
1.40001
1.40001
1.40001
1.40001
1.40001
1.40001
1.40001
1.40001
1.40001
1.40001
1.40001
1.40001
1.40001
1.40001
1.40001
1.40001
1.40001
1.40001
1.40001
1.40001
1.40001
1.40001
1.40001
1.40001
1.40001
1.40001
1.40001
1.40001
1.40001
1.40001
1.40001
1.40001
1.40001
1.40001
1.40001
1.40001
1.40001
1.40001
1.40001
1.40001
1.40001
1.40001
1.40001
1.40001
1.40001
1.40001
1.40001
1.40001
1.40001
1.40001
1.40001
1.40001
1.40001
1.40001
1.40001
1.40001
1.40001
1.40001
1.40001
1.40001
1.40001
1.40001
1.40001
1.40001
1.40001
1.40001
1.40001
1.40001
1.40001
1.40001
1.40001
1.40001
1.40001
1.40001
1.40001
1.40001
1.40001
1.40001
1.40001
1.40001
1.40001
1.40001
1.40001
1.40001
1.40001
1.40001
1.40001
1.40001
1.40001
1.40001
1.40001
1.40001
1.40001
1.40001
1.40001
1.40001
1.40001
1.40001
1.40001
1.40001
1.40001
1.40001
1.40001
1.40001
1.40001
1.40001
1.40001
1.40001
1.40001
1.40001
1.40001
1.40001
1.40001
1.40001
1.40001
1.40001
1.40001
1.40001
1.40001
1.40001
1.40001
1.40001
1.40001
1.40001
1.40001
1.40001
1.40001
1.40001
1.40001
1.40001
1.40001
1.40001
1.40001
1.40001
1.40001
1.40001
1.40001
1.40001
1.40001
1.40001
1.40001
1.40001
1.40001
1.40001
1.40001
1.40001
1.40001
1.40001
1.40001
1.40001
1.40001
1.40001
1.40001
1.40001
1.40001
1.40001
1.40001
1.40001
1.40001
1.40001
1.40001
1.40001
1.40001
1.40001
1.40001
1.40001
1.40001
1.40001
1.40001
1.40001
1.40001
1.40001
1.40001
1.40001
1.40001
1.40001
1.40001
1.40001
1.40001
1.40001
1.40001
1.40001
1.40001
1.40001
1.40001
1.40001
1.40001
1.40001
1.40001
1.40001
1.40001
1.40001
1.40001
1.40001
1.40001
1.40001
1.40001
1.40001
1.40001
1.40001
1.40001
1.40001
1.40001
1.40001
1.40001
1.40001
1.40001
1.40001
1.40001
1.40001
1.40001
1.40001
1.40001
1.40001
1.40001
1.40001
1.40001
1.40001
1.40001
1.40001
1.40001
1.40001
1.40001
1.40001
1.40001
1.40001
1.40001
1.40001
1.40001
1.40001
1.40001
1.40001
1.40001
1.40001
1.40001
1.40001
1.40001
1.40001
1.40001
1.40001
1.61544
0.86821
0.594649
0.502527
0.498266
0.51251
0.557737
0.603672
0.619775
0.620222
0.616899
0.606431
0.593411
0.584156
0.579941
0.577704
0.576186
0.57432
0.571739
0.568496
0.564711
0.560492
0.556131
0.552001
0.548373
0.54544
0.543368
0.542149
0.541512
0.541066
0.540458
0.539303
0.537533
0.535617
0.533628
0.531265
0.528869
0.527071
0.525849
0.525379
0.525741
0.527103
0.530482
0.539251
0.556044
0.578183
0.605619
0.638354
0.676147
0.718401
0.764334
0.813037
0.863467
0.914484
0.964886
1.01353
1.05937
1.10163
1.1398
1.17368
1.20339
1.22922
1.25158
1.27096
1.28794
1.30311
1.31703
1.33012
1.34256
1.35437
1.3654
1.37546
1.38444
1.39224
1.39884
1.40439
1.40908
1.41294
1.41593
1.41792
1.4182
1.41658
1.41509
1.41333
1.41132
1.40925
1.40729
1.40558
1.40415
1.40301
1.40212
1.40145
1.40096
1.40063
1.4004
1.40025
1.40015
1.40009
1.40005
1.40002
2.05272
1.30262
0.972168
0.825704
0.758922
0.713002
0.682453
0.668993
0.669379
0.67101
0.675635
0.675514
0.674245
0.670563
0.661426
0.65102
0.642646
0.636649
0.632251
0.628508
0.624687
0.620489
0.615974
0.611316
0.60664
0.602157
0.598166
0.594961
0.592739
0.591551
0.591248
0.591503
0.591847
0.591756
0.591038
0.589992
0.589118
0.588458
0.587361
0.585962
0.58551
0.586354
0.588033
0.591324
0.599196
0.613169
0.632815
0.657553
0.687044
0.720976
0.75896
0.800364
0.844377
0.890058
0.936438
0.982602
1.02771
1.07101
1.11184
1.14969
1.18421
1.21533
1.24318
1.26808
1.29038
1.31036
1.32826
1.34427
1.35863
1.37151
1.38299
1.39301
1.40146
1.40829
1.41358
1.41758
1.42067
1.42301
1.42462
1.42532
1.42412
1.42181
1.4194
1.41673
1.41396
1.4113
1.40889
1.40681
1.40506
1.40365
1.40257
1.40178
1.40121
1.4008
1.40053
1.40034
1.40021
1.40013
1.40008
1.40004
2.57524
1.84038
1.38975
1.11101
0.932546
0.817225
0.744863
0.69897
0.687906
0.689017
0.692616
0.700381
0.704349
0.704476
0.703114
0.6986
0.688942
0.679389
0.671278
0.665293
0.660198
0.655384
0.650462
0.64544
0.640405
0.63566
0.631323
0.627527
0.624468
0.622148
0.620536
0.619841
0.620105
0.620759
0.621301
0.621822
0.622613
0.623694
0.624406
0.624785
0.625361
0.626633
0.628529
0.632229
0.639624
0.651905
0.669262
0.691642
0.718863
0.750661
0.786649
0.826272
0.868797
0.913352
0.958996
1.00478
1.04983
1.09337
1.13465
1.17307
1.2081
1.2395
1.26725
1.29161
1.31294
1.33168
1.34818
1.3627
1.37543
1.38655
1.39619
1.40443
1.41121
1.41648
1.4203
1.42294
1.42482
1.42617
1.427
1.427
1.4254
1.42275
1.42001
1.41709
1.41415
1.41137
1.40889
1.40676
1.40499
1.40358
1.40251
1.40173
1.40117
1.40077
1.4005
1.40032
1.4002
1.40012
1.40007
1.40003
2.94102
2.25024
1.74772
1.40309
1.17021
1.01118
0.903732
0.834294
0.786169
0.75563
0.74068
0.734243
0.733342
0.733214
0.731696
0.730036
0.72683
0.72046
0.711143
0.701805
0.693164
0.685676
0.678912
0.673165
0.667984
0.66337
0.659024
0.655018
0.651467
0.648537
0.646294
0.645004
0.644959
0.645912
0.647239
0.648633
0.650278
0.652235
0.653641
0.654351
0.654996
0.656287
0.658407
0.662195
0.669758
0.683084
0.702453
0.727576
0.758003
0.793171
0.832301
0.874459
0.918596
0.963644
1.00854
1.05231
1.09411
1.13334
1.16961
1.20278
1.23283
1.25981
1.28388
1.30525
1.32421
1.34113
1.35633
1.37003
1.38234
1.39323
1.40263
1.4105
1.41689
1.42184
1.42544
1.42796
1.42969
1.43074
1.431
1.43009
1.42831
1.42516
1.4219
1.41857
1.4153
1.41227
1.40956
1.40724
1.40533
1.40383
1.4027
1.40187
1.40128
1.40085
1.40056
1.40036
1.40023
1.40015
1.40009
1.40004
3.16679
2.54794
2.04779
1.67318
1.40283
1.20688
1.06243
0.957318
0.881557
0.827791
0.791022
0.765646
0.750957
0.743569
0.739653
0.736651
0.734683
0.732767
0.729304
0.723053
0.716068
0.708128
0.700736
0.693621
0.687286
0.681893
0.67734
0.673228
0.669773
0.667082
0.665049
0.663864
0.663814
0.664734
0.666162
0.6679
0.670125
0.672834
0.674904
0.67621
0.67753
0.679807
0.68395
0.692818
0.706734
0.725396
0.748734
0.776582
0.808567
0.844107
0.882473
0.922818
0.96431
1.00609
1.04736
1.08735
1.12541
1.16103
1.19391
1.22394
1.2512
1.27584
1.29803
1.31795
1.33577
1.35172
1.36604
1.37894
1.39054
1.40082
1.40969
1.41704
1.42279
1.42698
1.42978
1.43154
1.43261
1.433
1.43259
1.43147
1.42947
1.42578
1.42222
1.41869
1.41529
1.41217
1.40942
1.40709
1.40519
1.40371
1.40261
1.4018
1.40122
1.40081
1.40053
1.40034
1.40022
1.40013
1.40008
1.40004
3.32506
2.79681
2.32516
1.94329
1.64663
1.42001
1.2503
1.12084
1.02138
0.944903
0.885042
0.840972
0.806394
0.780647
0.763994
0.75435
0.74891
0.747139
0.74607
0.744373
0.740957
0.734964
0.72791
0.720555
0.713356
0.706465
0.7004
0.695121
0.690777
0.687681
0.6856
0.684404
0.684414
0.685557
0.687048
0.688571
0.690494
0.693289
0.696019
0.698126
0.700649
0.705403
0.713965
0.72692
0.744547
0.766775
0.79317
0.823226
0.856439
0.892195
0.929804
0.968507
1.00763
1.04652
1.08458
1.12115
1.15567
1.18772
1.21704
1.24357
1.26748
1.28905
1.30859
1.32638
1.34261
1.35739
1.37083
1.38306
1.39415
1.40413
1.41284
1.42013
1.42583
1.42995
1.4327
1.43435
1.43502
1.43513
1.43497
1.43379
1.43128
1.42706
1.42318
1.41943
1.41585
1.41258
1.40971
1.40728
1.40532
1.40382
1.40269
1.40186
1.40127
1.40085
1.40056
1.40037
1.40023
1.40015
1.40009
1.40005
3.43206
2.97731
2.55348
2.18727
1.88537
1.64281
1.45118
1.29948
1.17812
1.07853
0.996942
0.929145
0.874528
0.832898
0.802209
0.78151
0.768293
0.760934
0.756892
0.754276
0.752325
0.749549
0.745609
0.740379
0.734231
0.727597
0.720951
0.714613
0.709144
0.705307
0.702807
0.701324
0.70105
0.701957
0.703333
0.704625
0.706457
0.709785
0.714018
0.718787
0.724817
0.733511
0.746169
0.763195
0.78473
0.810343
0.839332
0.870875
0.904331
0.939006
0.974739
1.01068
1.04657
1.08186
1.1159
1.14831
1.17899
1.2077
1.23427
1.25854
1.28037
1.30002
1.3179
1.33439
1.34963
1.36371
1.37668
1.38853
1.39928
1.40892
1.41735
1.42437
1.42978
1.43351
1.4357
1.43675
1.43727
1.43748
1.43697
1.43527
1.43186
1.42747
1.42339
1.41945
1.41575
1.4124
1.4095
1.40708
1.40515
1.40368
1.40258
1.40178
1.40121
1.40081
1.40053
1.40034
1.40022
1.40014
1.40008
1.40004
3.50994
3.12557
2.75165
2.40994
2.11407
1.8653
1.65749
1.4851
1.34071
1.22027
1.11884
1.03574
0.967885
0.914289
0.8725
0.840555
0.816881
0.799063
0.786128
0.777648
0.772417
0.768941
0.765812
0.762226
0.757836
0.752326
0.746091
0.740025
0.734386
0.729074
0.724761
0.721932
0.720351
0.720172
0.721149
0.722799
0.72526
0.729852
0.73682
0.745405
0.755456
0.76785
0.783857
0.803784
0.82765
0.854892
0.884716
0.916262
0.948831
0.981873
1.01508
1.04823
1.08102
1.11305
1.14394
1.17331
1.20092
1.22661
1.25017
1.27166
1.29158
1.30992
1.32652
1.3417
1.356
1.36954
1.38217
1.39373
1.40411
1.41328
1.42121
1.4278
1.43289
1.43636
1.43839
1.43947
1.44
1.43991
1.43897
1.43672
1.43256
1.42817
1.42389
1.41975
1.4159
1.41246
1.4095
1.40706
1.40514
1.40367
1.40258
1.40179
1.40122
1.40082
1.40054
1.40035
1.40023
1.40014
1.40009
1.40005
3.60117
3.23932
2.90872
2.59844
2.31558
2.065
1.84868
1.66136
1.50173
1.36419
1.24819
1.15114
1.07156
1.00698
0.954013
0.911012
0.87559
0.846932
0.824763
0.807655
0.795227
0.786383
0.779529
0.774384
0.770044
0.765741
0.761055
0.756284
0.751625
0.747482
0.744296
0.741831
0.740073
0.739422
0.740293
0.742692
0.746725
0.753111
0.762863
0.774952
0.78866
0.804309
0.822995
0.845148
0.870262
0.897904
0.927367
0.957899
0.988767
1.0195
1.04975
1.07941
1.10853
1.13709
1.16474
1.19104
1.21565
1.23859
1.25995
1.27974
1.29791
1.31478
1.33073
1.34568
1.35966
1.37303
1.38581
1.39769
1.40835
1.41754
1.4252
1.43135
1.43605
1.43933
1.44141
1.44252
1.44274
1.4421
1.44029
1.43682
1.4325
1.42815
1.42377
1.41954
1.41563
1.41216
1.40921
1.40681
1.40494
1.40352
1.40247
1.4017
1.40116
1.40077
1.40051
1.40033
1.40021
1.40013
1.40008
1.40004
3.70465
3.36668
3.05037
2.7587
2.48896
2.24196
2.01991
1.82303
1.65145
1.50364
1.37833
1.27249
1.18438
1.11008
1.04765
0.994118
0.949062
0.911336
0.879789
0.854674
0.83441
0.818308
0.806131
0.79609
0.787944
0.781793
0.776964
0.773104
0.770235
0.767963
0.766044
0.76481
0.764375
0.76488
0.767054
0.771372
0.777957
0.786849
0.798417
0.812883
0.829044
0.846391
0.865471
0.887108
0.91148
0.937766
0.965537
0.99422
1.02307
1.05133
1.07859
1.10506
1.13104
1.1565
1.18121
1.20489
1.22715
1.24781
1.26698
1.28495
1.3019
1.31786
1.33286
1.34722
1.36103
1.37433
1.38727
1.39957
1.41073
1.42033
1.42814
1.43411
1.43844
1.44156
1.44374
1.44495
1.44498
1.44393
1.44145
1.43718
1.43275
1.42823
1.4237
1.41937
1.41541
1.41193
1.40899
1.40664
1.40481
1.40343
1.4024
1.40166
1.40113
1.40076
1.4005
1.40032
1.40021
1.40013
1.40008
1.40004
3.88074
3.50201
3.19146
2.90788
2.64209
2.39789
2.17455
1.97337
1.795
1.6399
1.50656
1.39376
1.29749
1.21546
1.14429
1.08255
1.02914
0.983246
0.944436
0.911242
0.883452
0.860014
0.839902
0.823923
0.810882
0.800499
0.79351
0.788946
0.786105
0.785079
0.785325
0.786704
0.789432
0.793364
0.798341
0.805134
0.814233
0.825334
0.838243
0.853199
0.869864
0.887853
0.907158
0.927985
0.950887
0.975463
1.00173
1.02898
1.05613
1.08229
1.10732
1.13145
1.15475
1.17735
1.19922
1.22021
1.24008
1.25866
1.27587
1.29189
1.30712
1.32182
1.33597
1.34958
1.36271
1.37555
1.38822
1.40063
1.4122
1.42226
1.43041
1.4365
1.44071
1.44349
1.44533
1.44634
1.44632
1.44522
1.44265
1.43794
1.43294
1.42809
1.42337
1.41893
1.41494
1.41148
1.40861
1.40632
1.40457
1.40325
1.40227
1.40156
1.40106
1.40071
1.40047
1.4003
1.40019
1.40012
1.40008
1.40004
3.99888
3.67446
3.33702
3.04864
2.79001
2.54473
2.32042
2.11666
1.93508
1.77603
1.63769
1.51796
1.41383
1.32332
1.2437
1.1747
1.11363
1.06185
1.01603
0.977209
0.942828
0.912993
0.887293
0.865047
0.846891
0.832944
0.8219
0.814547
0.810422
0.808482
0.809191
0.811918
0.816107
0.822024
0.829416
0.838259
0.849077
0.8622
0.876639
0.89185
0.90828
0.926279
0.945559
0.966186
0.988001
1.01126
1.03645
1.06281
1.08896
1.11397
1.13759
1.16007
1.18166
1.20239
1.22218
1.2409
1.25862
1.27531
1.29087
1.30534
1.31883
1.33176
1.34446
1.357
1.36919
1.38103
1.3927
1.40434
1.41555
1.42553
1.43367
1.43971
1.44384
1.44625
1.44743
1.4479
1.44776
1.44675
1.44406
1.43878
1.43317
1.42795
1.42301
1.41847
1.41446
1.41104
1.40824
1.40604
1.40435
1.40309
1.40216
1.40149
1.40101
1.40067
1.40044
1.40029
1.40019
1.40012
1.40007
1.40004
4.03574
3.84502
3.50878
3.20087
2.93001
2.69005
2.46421
2.2589
2.07487
1.91196
1.76915
1.64367
1.53274
1.43448
1.34746
1.27112
1.2042
1.14593
1.09508
1.05063
1.01081
0.976185
0.944953
0.918378
0.895586
0.876843
0.862308
0.85119
0.843337
0.839231
0.837589
0.839024
0.843095
0.848929
0.856721
0.866507
0.877572
0.8911
0.906417
0.921973
0.937911
0.95552
0.975285
0.996159
1.01752
1.04016
1.06477
1.09076
1.11627
1.14051
1.16327
1.18462
1.20486
1.22406
1.24232
1.25965
1.27576
1.29069
1.30474
1.31814
1.33095
1.34326
1.35528
1.36719
1.37877
1.38989
1.40062
1.41116
1.42147
1.43093
1.43886
1.44474
1.44839
1.45015
1.45069
1.45068
1.45004
1.44804
1.44391
1.43814
1.43267
1.42734
1.42231
1.41777
1.4138
1.41046
1.40777
1.40567
1.40408
1.40288
1.40201
1.40138
1.40093
1.40062
1.40041
1.40027
1.40017
1.40011
1.40007
1.40004
4.01097
3.91857
3.69043
3.37515
3.0877
2.83462
2.61257
2.40921
2.2229
2.05524
1.90502
1.77159
1.65315
1.54789
1.45463
1.37246
1.30056
1.23738
1.1819
1.13214
1.08832
1.04805
1.01357
0.982276
0.95598
0.933914
0.915285
0.901163
0.890062
0.882252
0.877774
0.875731
0.87665
0.880945
0.886819
0.894999
0.905744
0.917746
0.931245
0.946638
0.962047
0.977784
0.995411
1.0153
1.03611
1.05733
1.08027
1.1046
1.12857
1.1513
1.17257
1.19249
1.21147
1.22976
1.24741
1.26434
1.28048
1.29575
1.31027
1.32395
1.33723
1.35018
1.36271
1.3748
1.38677
1.39844
1.40937
1.41947
1.42892
1.4377
1.44528
1.45094
1.4542
1.4554
1.45541
1.45457
1.45227
1.44801
1.44286
1.4375
1.43196
1.42654
1.42149
1.41698
1.4131
1.40987
1.4073
1.40531
1.40381
1.40269
1.40187
1.40128
1.40087
1.40058
1.40038
1.40025
1.40016
1.4001
1.40007
1.40004
3.92616
3.91921
3.81189
3.56599
3.26596
3.00212
2.76865
2.56154
2.37582
2.20539
2.04957
1.90815
1.78075
1.6675
1.56775
1.48019
1.40354
1.3359
1.27586
1.22195
1.17334
1.12965
1.09059
1.05626
1.02665
1.00085
0.980029
0.96196
0.948009
0.9373
0.928993
0.924512
0.921587
0.921337
0.924637
0.929702
0.936594
0.946197
0.957171
0.969267
0.984096
0.999121
1.01423
1.03144
1.05041
1.06833
1.08719
1.10793
1.12849
1.14813
1.16651
1.18388
1.20079
1.21764
1.23454
1.2514
1.26807
1.28451
1.30062
1.31641
1.33186
1.34694
1.36168
1.37603
1.38973
1.40257
1.41452
1.42533
1.43488
1.44326
1.4504
1.45582
1.4591
1.46018
1.45951
1.45729
1.45285
1.44763
1.44228
1.43665
1.43095
1.42547
1.42045
1.41603
1.41227
1.40919
1.40677
1.40491
1.40351
1.40247
1.40171
1.40117
1.40079
1.40053
1.40035
1.40023
1.40014
1.40009
1.40006
1.40003
3.65191
3.85124
3.8262
3.70755
3.4644
3.1885
2.94313
2.72588
2.53129
2.35647
2.19697
2.05044
1.91688
1.79695
1.69064
1.5972
1.5151
1.44241
1.37755
1.31906
1.26626
1.21875
1.17628
1.13894
1.10606
1.07799
1.05343
1.03327
1.01599
1.00222
0.991777
0.983342
0.978432
0.975501
0.973683
0.975304
0.978462
0.983201
0.990801
0.999627
1.00982
1.02184
1.0362
1.05039
1.06579
1.0818
1.09724
1.11383
1.13164
1.14761
1.16239
1.17632
1.19019
1.20457
1.21961
1.23533
1.2516
1.26829
1.28534
1.30265
1.32002
1.33732
1.35433
1.37088
1.38674
1.40172
1.41543
1.42757
1.43799
1.44657
1.45341
1.45858
1.46196
1.46313
1.46208
1.45893
1.45326
1.44746
1.4416
1.43563
1.42976
1.42424
1.41928
1.41498
1.41138
1.40849
1.40623
1.4045
1.4032
1.40225
1.40156
1.40106
1.40072
1.40048
1.40031
1.4002
1.40013
1.40008
1.40005
1.40003
2.63621
3.65325
3.77325
3.74265
3.62426
3.38249
3.12879
2.90291
2.69982
2.51526
2.3474
2.19539
2.05754
1.93311
1.82175
1.72289
1.63529
1.55722
1.48718
1.42392
1.36692
1.31565
1.26997
1.22948
1.19385
1.16275
1.13567
1.11245
1.0927
1.07616
1.06273
1.05221
1.04389
1.03826
1.03463
1.03227
1.032
1.03282
1.03544
1.04108
1.04802
1.05585
1.06673
1.07776
1.08974
1.10292
1.11468
1.1252
1.13893
1.15259
1.16458
1.17605
1.18777
1.20031
1.21389
1.22837
1.24366
1.25973
1.27653
1.29391
1.3117
1.32965
1.34762
1.3654
1.38261
1.39888
1.41385
1.42717
1.43845
1.44761
1.45456
1.45945
1.46267
1.4639
1.46299
1.45984
1.45367
1.44702
1.44061
1.43432
1.4283
1.4228
1.41795
1.41381
1.41042
1.40773
1.40565
1.40406
1.40288
1.40202
1.40139
1.40095
1.40064
1.40043
1.40028
1.40018
1.40012
1.40008
1.40005
1.40003
1.98065
2.88269
3.6236
3.70545
3.66733
3.55116
3.32036
3.08779
2.87684
2.68533
2.50935
2.34886
2.204
2.07438
1.95859
1.8552
1.76246
1.6792
1.60412
1.53633
1.47518
1.42022
1.37114
1.32749
1.28893
1.25494
1.22514
1.19915
1.17668
1.15758
1.14148
1.12828
1.1176
1.10895
1.10267
1.09787
1.09476
1.09375
1.09388
1.09483
1.09898
1.10415
1.11032
1.11875
1.12699
1.13509
1.14468
1.15329
1.16073
1.17149
1.18115
1.18869
1.19751
1.20751
1.21894
1.23166
1.24547
1.26039
1.27632
1.29305
1.31038
1.32819
1.34631
1.36443
1.38209
1.39885
1.41423
1.42793
1.43957
1.4489
1.45571
1.46019
1.46298
1.46414
1.46338
1.46048
1.45439
1.44659
1.43947
1.43279
1.42664
1.42118
1.41649
1.41258
1.40943
1.40696
1.40506
1.40363
1.40256
1.40179
1.40123
1.40084
1.40056
1.40037
1.40025
1.40016
1.4001
1.40007
1.40004
1.40002
1.68248
2.0378
3.01219
3.57333
3.64493
3.59933
3.48831
3.27864
3.06285
2.86271
2.68021
2.51304
2.36086
2.22411
2.10185
1.99278
1.89519
1.80734
1.72783
1.65577
1.5906
1.53193
1.47944
1.43262
1.39104
1.35409
1.32136
1.29246
1.26718
1.24532
1.22653
1.21069
1.19719
1.18612
1.17689
1.1698
1.16451
1.16109
1.15972
1.16023
1.16158
1.16464
1.16747
1.17141
1.17658
1.18115
1.1861
1.19221
1.1969
1.20308
1.21205
1.21852
1.22311
1.23066
1.23995
1.2508
1.26284
1.27607
1.29038
1.30566
1.32175
1.33844
1.35561
1.37283
1.38977
1.40582
1.4205
1.43342
1.44425
1.45283
1.45885
1.46267
1.46493
1.4658
1.465
1.46175
1.45459
1.44561
1.43785
1.43087
1.4247
1.41939
1.41494
1.41131
1.40842
1.40617
1.40447
1.40319
1.40224
1.40156
1.40107
1.40073
1.40049
1.40032
1.40021
1.40014
1.40009
1.40006
1.40004
1.40002
1.54504
1.69311
2.0654
3.05772
3.51228
3.58287
3.53821
3.43608
3.25111
3.05074
2.85918
2.68442
2.5255
2.38191
2.25312
2.13786
2.03446
1.94141
1.85731
1.78114
1.71218
1.64997
1.5941
1.54405
1.49927
1.45917
1.42333
1.3914
1.36321
1.33844
1.31686
1.29813
1.28197
1.26819
1.25656
1.24725
1.23995
1.23498
1.23181
1.23053
1.23055
1.23125
1.23309
1.23442
1.23585
1.238
1.23913
1.24159
1.24518
1.24729
1.25277
1.26013
1.26448
1.26821
1.27464
1.2836
1.29393
1.30536
1.31788
1.33136
1.3458
1.36081
1.37643
1.39193
1.40723
1.42156
1.43449
1.44558
1.45457
1.46132
1.46594
1.46892
1.47067
1.47114
1.46912
1.46256
1.45212
1.4434
1.43557
1.42861
1.42259
1.41754
1.41339
1.41005
1.40743
1.40542
1.4039
1.40277
1.40194
1.40134
1.40092
1.40062
1.40042
1.40028
1.40018
1.40012
1.40008
1.40005
1.40003
1.40002
1.46409
1.54301
1.69674
2.06661
3.03146
3.44277
3.52085
3.48217
3.39343
3.23486
3.04915
2.86648
2.69906
2.54802
2.41248
2.291
2.18167
2.08292
1.99354
1.91258
1.83934
1.77324
1.71375
1.66026
1.61217
1.56884
1.52986
1.49484
1.46363
1.43587
1.41139
1.3898
1.37096
1.35464
1.34087
1.32959
1.32075
1.31421
1.30952
1.30636
1.30392
1.30224
1.30078
1.29987
1.29929
1.29904
1.29967
1.29994
1.30155
1.3033
1.30475
1.30978
1.31539
1.31844
1.32202
1.32778
1.33644
1.34633
1.357
1.36872
1.38114
1.39418
1.40744
1.42063
1.43326
1.44489
1.45533
1.46388
1.47044
1.4751
1.47831
1.4806
1.48149
1.47847
1.46851
1.45845
1.44935
1.44084
1.43308
1.42627
1.4205
1.41574
1.4119
1.40885
1.4065
1.4047
1.40336
1.40237
1.40166
1.40114
1.40078
1.40053
1.40035
1.40023
1.40015
1.4001
1.40007
1.40004
1.40003
1.40002
1.42285
1.46222
1.53808
1.68574
2.04335
2.94587
3.36334
3.45774
3.43023
3.35971
3.22911
3.05712
2.88481
2.72577
2.582
2.45282
2.33646
2.23139
2.13636
2.05031
1.97228
1.90171
1.8381
1.78083
1.72917
1.68243
1.64012
1.60189
1.56753
1.53678
1.5094
1.48507
1.46377
1.44532
1.4298
1.41699
1.40672
1.39839
1.39148
1.38541
1.38005
1.37536
1.37135
1.36809
1.36528
1.36336
1.36188
1.36097
1.36096
1.36191
1.36294
1.36493
1.37032
1.37455
1.37703
1.38114
1.38713
1.39505
1.40397
1.41336
1.42338
1.43392
1.44463
1.45508
1.46503
1.4737
1.4814
1.48727
1.49154
1.49469
1.49701
1.4952
1.48575
1.47602
1.46627
1.45648
1.44702
1.43831
1.43062
1.42402
1.4185
1.41403
1.4105
1.40774
1.40564
1.40405
1.40288
1.40202
1.4014
1.40096
1.40065
1.40044
1.40029
1.40019
1.40013
1.40008
1.40006
1.40004
1.40003
1.40002
1.40843
1.42262
1.45442
1.53069
1.66207
1.99318
2.80356
3.27137
3.39449
3.38128
3.32998
3.22884
3.07126
2.91136
2.76114
2.62383
2.49966
2.3875
2.28594
2.19392
2.1106
2.03521
1.96717
1.90574
1.8502
1.79978
1.75399
1.71244
1.67495
1.6413
1.61128
1.58466
1.56131
1.5411
1.52382
1.50913
1.49649
1.48526
1.47516
1.46602
1.45786
1.45062
1.4443
1.43883
1.43421
1.43032
1.42735
1.42507
1.42358
1.42329
1.42364
1.42426
1.42697
1.43132
1.43418
1.43698
1.44108
1.44694
1.45413
1.46159
1.46972
1.47792
1.48605
1.49371
1.50081
1.5067
1.51153
1.51533
1.51784
1.51576
1.50679
1.49777
1.48757
1.4766
1.46542
1.4546
1.44461
1.43574
1.42811
1.42174
1.41655
1.41241
1.40917
1.4067
1.40483
1.40344
1.40243
1.40169
1.40117
1.4008
1.40054
1.40036
1.40024
1.40016
1.4001
1.40007
1.40005
1.40003
1.40002
1.40001
1.40314
1.40695
1.42016
1.44585
1.51583
1.6327
1.9155
2.60786
3.16414
3.32775
3.33044
3.2974
3.218
3.08119
2.93911
2.80102
2.67167
2.55255
2.44376
2.34503
2.25564
2.17463
2.10134
2.0352
1.97549
1.92135
1.87217
1.82752
1.78721
1.75099
1.71863
1.68976
1.66411
1.64143
1.62137
1.60351
1.58758
1.57325
1.56026
1.54844
1.53777
1.52818
1.51971
1.51227
1.50583
1.50035
1.49581
1.49222
1.48952
1.48779
1.48711
1.48686
1.48777
1.49015
1.49294
1.49553
1.49847
1.50219
1.50739
1.51319
1.51893
1.52485
1.53028
1.5353
1.53963
1.54314
1.54451
1.54069
1.53407
1.52549
1.51478
1.50253
1.48946
1.47629
1.46366
1.45201
1.44167
1.43279
1.42537
1.41933
1.41452
1.41076
1.40788
1.40569
1.40407
1.40288