/*--------------------------------*- C++ -*----------------------------------*\
  =========                 |
  \\      /  F ield         | OpenFOAM: The Open Source CFD Toolbox
   \\    /   O peration     | Website:  https://openfoam.org
    \\  /    A nd           | Version:  13
     \\/     M anipulation  |
\*---------------------------------------------------------------------------*/
FoamFile
{
    format      ascii;
    class       volScalarField;
    location    "0.5";
    object      T;
}
// * * * * * * * * * * * * * * * * * * * * * * * * * * * * * * * * * * * * * //

dimensions      [0 0 0 1 0 0 0];

internalField   nonuniform List<scalar> 
5250
(
1
1
1
1.00001
1.00001
1.00004
1.00009
1.00027
1.00058
1.00176
1.00381
1.01114
1.0263
1.0731
1.19864
1.56491
2.30773
2.97639
2.9194
2.87213
2.88959
2.93969
3.08474
3.39561
3.37111
1
1
1
1.00001
1.00001
1.00004
1.00009
1.00027
1.00057
1.00173
1.00374
1.01093
1.02582
1.07174
1.19484
1.55488
2.29215
2.97325
2.91764
2.87019
2.88776
2.93791
3.08045
3.3914
3.37072
1
1
1
1.00001
1.00001
1.00004
1.00009
1.00025
1.00055
1.00165
1.00361
1.01053
1.02478
1.06897
1.18681
1.5333
2.25654
2.9656
2.91327
2.86539
2.88296
2.93331
3.07044
3.38123
3.36861
1
1
1
1.00001
1.00001
1.00004
1.00008
1.00024
1.00053
1.00156
1.0034
1.00994
1.02329
1.06485
1.17495
1.50066
2.2016
2.95067
2.9051
2.85794
2.87526
2.92565
3.05329
3.36672
3.36441
1
1
1
1.00001
1.00001
1.00003
1.00008
1.00022
1.00049
1.00144
1.00314
1.00919
1.0214
1.05961
1.15979
1.45801
2.12696
2.92573
2.89262
2.84906
2.86612
2.9153
3.03091
3.34021
3.35512
1
1
1
1
1.00001
1.00003
1.00007
1.0002
1.00045
1.0013
1.00286
1.00832
1.01927
1.05352
1.14214
1.40649
2.03423
2.88045
2.87298
2.84053
2.8558
2.90267
3.00471
3.30858
3.34313
1
1
1
1
1.00001
1.00003
1.00007
1.00018
1.00041
1.00116
1.00259
1.00739
1.01712
1.0471
1.12348
1.34974
1.92984
2.79124
2.85274
2.82817
2.84451
2.88874
2.97275
3.25513
3.31732
1
1
1
1
1.00001
1.00002
1.00006
1.00016
1.00039
1.00101
1.00239
1.00648
1.01537
1.04128
1.1071
1.29714
1.82435
2.6428
2.8255
2.81618
2.83632
2.87167
2.93459
3.19498
3.28466
1
1
1
1
1.00001
1.00002
1.00006
1.00014
1.00035
1.00088
1.00215
1.00564
1.01374
1.03614
1.094
1.25768
1.74814
2.50032
2.7866
2.81083
2.82947
2.85088
2.88838
3.10577
3.2094
1
1
1
1
1.00001
1.00002
1.00005
1.00012
1.0003
1.00075
1.00185
1.00484
1.01181
1.03105
1.08026
1.22002
1.62527
2.35758
2.73568
2.80096
2.81258
2.82181
2.83867
2.98977
3.10682
1
1
1
1
1.00001
1.00001
1.00004
1.0001
1.00024
1.00062
1.00153
1.00405
1.00977
1.02606
1.06638
1.18258
1.50712
2.19175
2.67398
2.7828
2.78675
2.78118
2.76676
2.83506
2.85686
1
1
1
1
1
1.00001
1.00003
1.00008
1.00017
1.00055
1.00112
1.00343
1.00756
1.02135
1.05265
1.14566
1.40701
1.98413
2.60915
2.76885
2.76498
2.73801
2.69005
2.69027
2.67591
1
1
1
1
1
1.00001
1.00003
1.00005
1.00016
1.00036
1.00101
1.00233
1.00636
1.01543
1.04119
1.10812
1.30406
1.76176
2.53008
2.74192
2.7335
2.70278
2.62055
2.58113
2.56319
1
1
1
1
1
1.00001
1.00002
1.00005
1.00012
1.00029
1.00075
1.00182
1.00488
1.01176
1.03129
1.08079
1.22278
1.60655
2.33488
2.66284
2.66121
2.63791
2.57142
2.49098
2.45743
1
1
1
1
1
1.00001
1.00001
1.00004
1.00008
1.00024
1.00049
1.00153
1.00326
1.00949
1.02225
1.06121
1.16271
1.45618
2.08679
2.55622
2.60393
2.58411
2.53959
2.45244
2.39823
1
1
1
1
1
1
1.00001
1.00002
1.00006
1.00016
1.00037
1.00104
1.00234
1.00671
1.01562
1.04314
1.11229
1.3178
1.78037
2.45292
2.57229
2.55828
2.51991
2.43881
2.36975
1
1
1
1
1
1
1.00001
1.00002
1.00004
1.0001
1.00028
1.00066
1.00176
1.00435
1.01117
1.02858
1.0751
1.20414
1.54301
2.22821
2.48462
2.4969
2.47115
2.41841
2.34721
1
1
1
1
1
1
1
1.00001
1.00003
1.00007
1.00018
1.00044
1.00121
1.00281
1.00788
1.01866
1.051
1.13441
1.37595
1.91946
2.37369
2.45476
2.44052
2.40469
2.34514
1
1
1
1
1
1
1
1.00001
1.00002
1.00005
1.00011
1.00032
1.00069
1.00204
1.00442
1.01281
1.03007
1.08303
1.22206
1.58745
2.19903
2.37197
2.38423
2.3646
2.33199
1
1
1
1
1
1
1
1
1.00001
1.00003
1.00008
1.00017
1.00051
1.00109
1.00326
1.00713
1.02043
1.04961
1.1376
1.37474
1.89299
2.25738
2.34156
2.33381
2.30959
1
1
1
1
1
1
1
1
1.00001
1.00002
1.00004
1.00011
1.00028
1.00072
1.00175
1.00467
1.01121
1.02999
1.07655
1.20937
1.54979
2.08925
2.25035
2.27648
2.2614
1
1
1
1
1
1
1
1
1
1.00001
1.00002
1.00007
1.00016
1.00042
1.00105
1.00263
1.00684
1.01708
1.04493
1.11888
1.32769
1.77883
2.13864
2.2296
2.22517
1
1
1
1
1
1
1
1
1
1.00001
1.00002
1.00003
1.0001
1.00022
1.00061
1.00146
1.00381
1.00953
1.02453
1.06331
1.16935
1.45114
1.91785
2.11585
2.17715
1
1
1
1
1
1
1
1
1
1
1.00001
1.00002
1.00004
1.00014
1.00028
1.00088
1.00181
1.00552
1.0123
1.03471
1.08731
1.24282
1.59633
2.01347
2.10148
1
1
1
1
1
1
1
1
1
1
1
1.00001
1.00002
1.00007
1.00015
1.00043
1.00101
1.00274
1.0067
1.01756
1.04518
1.12016
1.33005
1.73789
1.9937
1
1
1
1
1
1
1
1
1
1
1
1
1.00001
1.00003
1.00009
1.0002
1.00054
1.00131
1.00339
1.00862
1.02196
1.05692
1.15097
1.40503
1.76624
1
1
1
1
1
1
1
1
1
1
1
1
1.00001
1.00001
1.00004
1.0001
1.00024
1.00064
1.00155
1.00421
1.00993
1.02715
1.06783
1.18609
1.46675
1
1
1
1
1
1
1
1
1
1
1
1
1
1.00001
1.00002
1.00005
1.0001
1.00032
1.00065
1.002
1.00438
1.01257
1.03013
1.08275
1.22024
1
1
1
1
1
1
1
1
1
1
1
1
1
1
1.00001
1.00002
1.00004
1.00013
1.00029
1.00084
1.00196
1.00537
1.01315
1.03535
1.09097
1
1
1
1
1
1
1
1
1
1
1
1
1
1
1
1.00001
1.00002
1.00005
1.00012
1.00034
1.0008
1.00229
1.0052
1.01498
1.03598
1
1
1
1
1
1
1
1
1
1
1
1
1
1
1
1
1.00001
1.00002
1.00005
1.00012
1.00035
1.00079
1.00226
1.00536
1.01469
1
1
1
1
1
1
1
1
1
1
1
1
1
1
1
1
1
1.00001
1.00002
1.00005
1.00012
1.00031
1.00079
1.00203
1.00533
1
1
1
1
1
1
1
1
1
1
1
1
1
1
1
1
1
1
1.00001
1.00002
1.00004
1.00012
1.00024
1.00079
1.00162
1
1
1
1
1
1
1
1
1
1
1
1
1
1
1
1
1
1
1
1
1.00001
1.00003
1.0001
1.00021
1.00063
1
1
1
1
1
1
1
1
1
1
1
1
1
1
1
1
1
1
1
1
1
1.00001
1.00003
1.00006
1.00019
1
1
1
1
1
1
1
1
1
1
1
1
1
1
1
1
1
1
1
1
1
1
1.00001
1.00002
1.00005
1
1
1
1
1
1
1
1
1
1
1
1
1
1
1
1
1
1
1
1
1
1
1
1
1.00001
1
1
1
1
1
1
1
1
1
1
1
1
1
1
1
1
1
1
1
1
1
1
1
1
1
1
1
1
1
1
1
1
1
1
1
1
1
1
1
1
1
1
1
1
1
1
1
1
1
1
1
1
1
1
1
1
1
1
1
1
1
1
1
1
1
1
1
1
1
1
1
1
1
1
1
1
1
1
1
1
1
1
1
1
1
1
1
1
1
1
1
1
1
1
1
1
1
1
1
1
1
1
1
1
1
1
1
1
1
1
1
1
1
1
1
1
1
1
1
1
1
1
1
1
1
1
1
1
1
1
1
1
1
1
1
1
1
1
1
1
1
1
1
1
1
1
1
1
1
1
1
1
1
1
1
1
1
1
1
1
1
1
1
1
1
1
1
1
1
1
1
1
1
1
1
1
1
1
1
1
1
1
1
1
1
1
1
1
1
1
1
1
1
1
1
1
1
1
1
1
1
1
1
1
1
1
1
1
1
1
1
1
1
1
1
1
1
1
1
1
1
1
1
1
1
1
1
1
1
1
1
1
1
1
1
1
1
1
1
1
1
1
1
1
1
1
1
1
1
1
1
1
1
1
1
1
1
1
1
1
1
1
1
1
1
1
1
1
1
1
1
1
1
1
1
1
1
1
1
1
1
1
1
1
1
1
1
1
1
1
1
1
1
1
1
1
1
1
1
1
1
1
1
1
1
1
1
1
1
1
1
1
1
1
1
1
1
1
1
1
1
1
1
1
1
2.72827
2.51729
2.43891
2.45046
2.50655
2.56764
2.61885
2.64419
2.64071
2.6302
2.61428
2.59202
2.57086
2.55464
2.53906
2.52196
2.50335
2.48375
2.46355
2.44333
2.42422
2.40726
2.39223
2.37799
2.36348
2.34785
2.33049
2.31152
2.29218
2.2745
2.26014
2.25004
2.24507
2.24442
2.24534
2.24886
2.25586
2.26279
2.26815
2.27077
2.27084
2.26876
2.26006
2.23362
2.17734
2.10383
2.01926
1.92726
1.83174
1.73657
1.64494
1.55899
1.4801
1.40903
1.34607
1.29111
1.2438
1.20358
1.16982
1.14187
1.11905
1.10073
1.08636
1.07538
1.06721
1.0612
1.05673
1.0532
1.05015
1.04724
1.04423
1.04096
1.03735
1.03342
1.02937
1.02548
1.02205
1.01912
1.01653
1.01391
1.01078
1.00811
1.00507
1.00246
1.00076
0.999758
0.999255
0.999072
0.999058
0.999104
0.99926
0.999463
0.99962
0.999737
0.999821
0.999881
0.999923
0.999951
0.99997
0.999981
2.64042
2.55758
2.49286
2.44467
2.39584
2.34656
2.3098
2.30063
2.30155
2.30415
2.30538
2.30464
2.30025
2.2901
2.27455
2.25968
2.24546
2.23077
2.21551
2.20067
2.18715
2.17479
2.16298
2.15138
2.14011
2.12915
2.11812
2.10637
2.09352
2.07963
2.06512
2.05118
2.03943
2.03129
2.0272
2.0261
2.02621
2.02716
2.03056
2.03586
2.03885
2.03928
2.03837
2.03375
2.01827
1.9844
1.93167
1.86971
1.80126
1.72889
1.65498
1.58194
1.51173
1.44585
1.38514
1.33001
1.28052
1.23657
1.19802
1.1647
1.13633
1.11262
1.09313
1.07735
1.06478
1.05495
1.04744
1.04176
1.03741
1.03387
1.03071
1.02764
1.02456
1.02147
1.01851
1.01586
1.01365
1.01187
1.01035
1.00879
1.00703
1.00454
1.00182
0.999979
0.998885
0.998349
0.998189
0.998206
0.998311
0.998621
0.998966
0.99924
0.999452
0.999612
0.999731
0.999817
0.999877
0.999919
0.999948
0.999965
2.54165
2.50788
2.44878
2.37129
2.28832
2.21565
2.16131
2.13666
2.13371
2.13488
2.13757
2.14155
2.13897
2.13577
2.12956
2.12004
2.10826
2.09561
2.08297
2.07079
2.05971
2.04935
2.03973
2.03062
2.0218
2.01274
2.00352
1.99411
1.9843
1.97437
1.96447
1.95414
1.94319
1.93298
1.92535
1.9195
1.91396
1.90985
1.90778
1.90716
1.90698
1.90643
1.90523
1.90083
1.88947
1.86467
1.82538
1.77673
1.72084
1.65992
1.59623
1.53193
1.46894
1.40875
1.35242
1.30059
1.25353
1.21135
1.17406
1.14164
1.11406
1.09114
1.07258
1.05794
1.04671
1.03834
1.03228
1.02804
1.02511
1.02302
1.0213
1.01959
1.01773
1.01576
1.01386
1.01218
1.01084
1.00978
1.00882
1.00774
1.00632
1.00364
1.00123
0.999625
0.99869
0.998254
0.998142
0.99817
0.998316
0.998667
0.999005
0.999272
0.999477
0.999632
0.999746
0.999829
0.999886
0.999926
0.999953
0.999969
2.42759
2.39505
2.34821
2.28961
2.23116
2.17621
2.12965
2.09193
2.06003
2.03886
2.02178
2.01514
2.01499
2.01572
2.0188
2.01916
2.01733
2.01255
2.00225
1.98924
1.97729
1.96643
1.95746
1.94865
1.94017
1.93147
1.92312
1.91481
1.90645
1.89794
1.88937
1.88035
1.87005
1.85889
1.84897
1.84069
1.83287
1.82652
1.82267
1.82117
1.82077
1.82015
1.81881
1.81474
1.80381
1.77935
1.739
1.68885
1.63184
1.5708
1.50852
1.44737
1.38916
1.33507
1.2858
1.24164
1.20258
1.16842
1.1388
1.11334
1.09171
1.07365
1.05891
1.04723
1.03828
1.03162
1.02678
1.02334
1.02087
1.01903
1.01752
1.01606
1.01446
1.01266
1.01082
1.00919
1.00796
1.00709
1.00646
1.00581
1.00426
1.00175
0.999777
0.998508
0.997838
0.9976
0.997598
0.997703
0.99804
0.998501
0.998876
0.999172
0.999402
0.999575
0.999704
0.999798
0.999864
0.99991
0.999942
0.99996
2.36263
2.33388
2.29987
2.25892
2.21012
2.15911
2.11051
2.0611
2.01286
1.97076
1.93998
1.9207
1.91953
1.92158
1.92729
1.93416
1.93702
1.9365
1.93382
1.92729
1.91671
1.90701
1.89659
1.88791
1.87931
1.87116
1.86326
1.85568
1.8478
1.83955
1.8313
1.82278
1.81321
1.80265
1.79287
1.78396
1.77486
1.76696
1.76166
1.75883
1.75683
1.75406
1.74791
1.73339
1.70738
1.67227
1.62948
1.58098
1.5289
1.47537
1.42226
1.37109
1.3229
1.27831
1.23765
1.20103
1.16843
1.13976
1.11481
1.09329
1.07493
1.05947
1.04676
1.03666
1.02897
1.02339
1.01953
1.01696
1.01525
1.01402
1.01299
1.01195
1.0108
1.00953
1.00823
1.00712
1.00635
1.00591
1.00568
1.00496
1.00344
1.00112
0.999349
0.998245
0.997695
0.997531
0.997556
0.997703
0.998116
0.998569
0.998931
0.999216
0.999435
0.999601
0.999723
0.999813
0.999875
0.999918
0.999948
0.999965
2.31701
2.27485
2.2395
2.20273
2.16361
2.12123
2.07256
2.02497
1.98085
1.94149
1.9111
1.8888
1.87487
1.86873
1.86879
1.87009
1.87252
1.87318
1.87239
1.8696
1.86388
1.85626
1.84795
1.83871
1.8298
1.82082
1.81189
1.80363
1.79589
1.78795
1.77982
1.77159
1.76224
1.75151
1.74183
1.73362
1.72541
1.71718
1.71046
1.70564
1.70056
1.69147
1.67596
1.65242
1.62061
1.58182
1.53805
1.49132
1.44337
1.39577
1.34975
1.30622
1.26578
1.22865
1.19483
1.16439
1.13732
1.11358
1.09302
1.07545
1.06058
1.04813
1.03789
1.02972
1.0235
1.01904
1.01606
1.01418
1.013
1.01213
1.01131
1.01038
1.00928
1.00803
1.00676
1.00569
1.00507
1.00478
1.00438
1.00375
1.00241
1.0002
0.998542
0.997586
0.997185
0.997124
0.9972
0.99748
0.998024
0.998492
0.99887
0.999168
0.999399
0.999573
0.999702
0.999796
0.999863
0.999909
0.999941
0.99996
2.29113
2.24363
2.20075
2.15951
2.11801
2.07506
2.02953
1.98364
1.94027
1.90405
1.87446
1.85467
1.83984
1.82808
1.81843
1.80971
1.8032
1.79937
1.79699
1.79636
1.79565
1.79417
1.79071
1.78513
1.77837
1.77077
1.76296
1.75565
1.74818
1.74046
1.73204
1.72349
1.7144
1.70432
1.69527
1.68817
1.68086
1.67227
1.66245
1.65193
1.63954
1.62291
1.60031
1.57068
1.53472
1.49426
1.45146
1.40829
1.36605
1.32574
1.28745
1.25194
1.21914
1.18919
1.16217
1.13786
1.11594
1.09623
1.07883
1.0639
1.0513
1.04073
1.03201
1.02501
1.01964
1.01575
1.01317
1.01158
1.01063
1.00996
1.00925
1.00836
1.00727
1.0061
1.00505
1.00443
1.00423
1.00393
1.0037
1.0031
1.00168
0.999559
0.998113
0.997337
0.997053
0.997045
0.997161
0.997546
0.998101
0.998558
0.998923
0.99921
0.999431
0.999598
0.999721
0.99981
0.999873
0.999917
0.999946
0.999964
2.28015
2.21941
2.16701
2.11991
2.07416
2.02877
1.9859
1.94594
1.9115
1.88187
1.85841
1.83743
1.81908
1.80096
1.78282
1.76689
1.75352
1.74392
1.73854
1.73541
1.73353
1.73248
1.73126
1.72899
1.72553
1.72197
1.71778
1.71204
1.70581
1.69883
1.69104
1.68257
1.67406
1.66496
1.65545
1.64686
1.6378
1.6261
1.61076
1.5926
1.57257
1.54962
1.52246
1.49044
1.45425
1.41566
1.37647
1.33825
1.30194
1.26805
1.23666
1.2077
1.1811
1.15677
1.13465
1.11472
1.09685
1.08079
1.0664
1.05422
1.04394
1.03471
1.02719
1.02143
1.01707
1.01393
1.01183
1.01055
1.00983
1.00935
1.00876
1.00783
1.00657
1.00526
1.00437
1.0041
1.0037
1.00351
1.00324
1.00249
1.00072
0.998778
0.997567
0.996964
0.99679
0.996824
0.997015
0.997527
0.998092
0.998549
0.998915
0.999202
0.999424
0.999591
0.999715
0.999805
0.999869
0.999913
0.999944
0.999961
2.27031
2.21259
2.15205
2.09679
2.04728
2.0027
1.96115
1.92526
1.89336
1.86775
1.84506
1.82401
1.8022
1.77922
1.7571
1.73627
1.71904
1.70499
1.69353
1.68557
1.67922
1.67433
1.6721
1.67117
1.67097
1.67051
1.66973
1.66769
1.66394
1.6581
1.65099
1.64294
1.6346
1.62558
1.61503
1.60318
1.58991
1.57313
1.55234
1.52829
1.50245
1.47496
1.445
1.41255
1.37833
1.34335
1.30893
1.27612
1.24564
1.21774
1.19248
1.16956
1.14864
1.12936
1.1115
1.09528
1.08071
1.0676
1.05588
1.04556
1.03685
1.02987
1.0241
1.01879
1.01491
1.01245
1.01075
1.00962
1.00891
1.00844
1.0079
1.00705
1.00585
1.00464
1.00401
1.00338
1.00309
1.00301
1.00276
1.00188
0.999841
0.998189
0.997196
0.996749
0.996666
0.996739
0.997027
0.997639
0.998176
0.998616
0.998968
0.999243
0.999455
0.999615
0.999733
0.999818
0.999878
0.99992
0.999948
0.999965
2.26063
2.19456
2.13835
2.08297
2.03235
1.9882
1.95023
1.91786
1.88946
1.86366
1.83846
1.8136
1.78765
1.76262
1.73857
1.71767
1.69885
1.68233
1.66821
1.65474
1.64424
1.63643
1.63044
1.62756
1.62694
1.62628
1.62561
1.62429
1.62142
1.61706
1.61131
1.60379
1.59457
1.58386
1.57057
1.55423
1.53511
1.51325
1.48835
1.46132
1.43298
1.40426
1.37495
1.34482
1.31453
1.28434
1.25492
1.22699
1.20113
1.17773
1.15721
1.13916
1.12241
1.10679
1.09225
1.07885
1.06673
1.05592
1.04632
1.03783
1.03051
1.02454
1.01998
1.0164
1.01309
1.01096
1.00984
1.00897
1.00826
1.0077
1.00716
1.00645
1.00562
1.00497
1.00401
1.0031
1.00278
1.00266
1.00228
1.00118
0.999141
0.997664
0.996837
0.996525
0.996516
0.996644
0.997073
0.997704
0.998229
0.998657
0.998998
0.999265
0.999471
0.999625
0.999739
0.999822
0.99988
0.999921
0.999949
0.999965
2.23724
2.18598
2.12342
2.07093
2.0247
1.98286
1.9468
1.91587
1.88862
1.86264
1.83693
1.80987
1.78278
1.75595
1.73143
1.70927
1.68912
1.6707
1.65298
1.63729
1.62281
1.61061
1.60177
1.59426
1.58887
1.58513
1.58078
1.57622
1.57156
1.5654
1.55792
1.54912
1.53791
1.52453
1.50942
1.49138
1.46996
1.44609
1.42103
1.39539
1.36873
1.34145
1.31418
1.28744
1.2615
1.23607
1.21118
1.18738
1.16539
1.14602
1.12966
1.11517
1.10183
1.08946
1.07781
1.06681
1.05663
1.04739
1.03923
1.03216
1.02608
1.02106
1.01718
1.01434
1.01218
1.01028
1.00946
1.00878
1.00793
1.00704
1.00624
1.00554
1.00511
1.0047
1.00372
1.00289
1.00254
1.00237
1.00187
1.00069
0.998644
0.997276
0.996601
0.996413
0.996452
0.99666
0.997213
0.997825
0.998326
0.998733
0.999057
0.999311
0.999505
0.999651
0.999758
0.999835
0.999889
0.999927
0.999953
0.999968
2.20566
2.16473
2.11394
2.06099
2.01449
1.97778
1.94423
1.91435
1.88685
1.85977
1.83245
1.80488
1.77823
1.75267
1.72933
1.70678
1.68664
1.66559
1.64674
1.62758
1.61096
1.59614
1.58299
1.5721
1.56196
1.55196
1.54352
1.53402
1.5244
1.51507
1.50434
1.49229
1.47924
1.46408
1.44748
1.42924
1.40808
1.38444
1.36069
1.33743
1.31342
1.2886
1.26412
1.24106
1.21906
1.19766
1.17667
1.15629
1.13753
1.12187
1.10916
1.0977
1.08723
1.07742
1.06814
1.05932
1.0509
1.04299
1.03585
1.0296
1.02428
1.01994
1.01655
1.01402
1.01225
1.01076
1.01007
1.00959
1.00864
1.00735
1.00613
1.00542
1.005
1.00412
1.00338
1.003
1.00282
1.00259
1.00189
1.00019
0.998123
0.996967
0.996477
0.996391
0.996463
0.996755
0.997387
0.997953
0.998425
0.998808
0.999113
0.999352
0.999535
0.999672
0.999772
0.999844
0.999896
0.999931
0.999956
0.999969
2.16884
2.14553
2.09703
2.05024
2.00784
1.96842
1.93849
1.90975
1.88216
1.85486
1.82718
1.79967
1.7736
1.74946
1.72714
1.7055
1.68431
1.6631
1.64199
1.62135
1.60272
1.58465
1.56926
1.55407
1.53982
1.52589
1.5113
1.49745
1.48343
1.46841
1.45446
1.43936
1.42314
1.40664
1.38874
1.36942
1.34909
1.32734
1.30492
1.2832
1.26232
1.24105
1.2199
1.19986
1.18101
1.16344
1.14638
1.12908
1.11339
1.10134
1.09145
1.08272
1.0749
1.06755
1.06033
1.05315
1.04628
1.03985
1.03387
1.0284
1.02379
1.02006
1.0172
1.01515
1.0136
1.01227
1.01163
1.01121
1.01035
1.00872
1.00711
1.00601
1.00466
1.00379
1.00345
1.00338
1.00333
1.00299
1.00165
0.999174
0.997586
0.996749
0.996434
0.996417
0.996532
0.996937
0.997565
0.998099
0.99854
0.998898
0.999182
0.999404
0.999573
0.999699
0.999792
0.999858
0.999905
0.999937
0.99996
0.999972
2.12001
2.10567
2.0786
2.0355
1.99629
1.96143
1.92632
1.89689
1.86966
1.84301
1.81761
1.79303
1.76919
1.74647
1.72457
1.70285
1.68058
1.65804
1.63536
1.61401
1.59294
1.57462
1.55545
1.53851
1.52076
1.50292
1.48571
1.46728
1.44934
1.4315
1.4125
1.39443
1.37625
1.35647
1.33763
1.31809
1.29746
1.27726
1.25711
1.23669
1.21728
1.19887
1.18019
1.16222
1.14556
1.13078
1.11687
1.10221
1.08882
1.07955
1.07196
1.06562
1.06014
1.05496
1.0498
1.04461
1.03947
1.03466
1.03015
1.02619
1.02269
1.01964
1.01733
1.0158
1.01477
1.01382
1.01315
1.01286
1.01221
1.01083
1.00909
1.00686
1.00494
1.00413
1.00404
1.00414
1.00399
1.00299
1.00051
0.998528
0.997291
0.996663
0.996465
0.996498
0.996668
0.997176
0.997767
0.99826
0.998665
0.998994
0.999255
0.999457
0.999611
0.999727
0.999811
0.999871
0.999914
0.999942
0.999963
0.999974
2.06695
2.06333
2.04809
2.02291
1.98567
1.9472
1.91375
1.88195
1.85195
1.82562
1.80149
1.77954
1.75945
1.73957
1.71875
1.69692
1.6738
1.6502
1.62669
1.60403
1.58257
1.56202
1.54231
1.52267
1.50271
1.4832
1.46218
1.44245
1.42171
1.40093
1.38083
1.35921
1.33831
1.31781
1.29626
1.27583
1.25602
1.23563
1.21656
1.19859
1.18053
1.16314
1.147
1.13044
1.11468
1.10111
1.08929
1.07697
1.06463
1.05688
1.05099
1.04624
1.04241
1.0389
1.03539
1.03193
1.02862
1.02561
1.02291
1.02056
1.0186
1.01703
1.01589
1.01511
1.01456
1.01435
1.01401
1.01377
1.01331
1.01246
1.01067
1.00756
1.00532
1.00445
1.00441
1.00448
1.00408
1.00242
0.999957
0.998184
0.997127
0.996649
0.99655
0.996611
0.99687
0.997448
0.99798
0.998428
0.998797
0.999095
0.999331
0.999514
0.999653
0.999756
0.999831
0.999885
0.999923
0.999949
0.999968
0.999977
1.95746
2.01863
2.01279
1.999
1.96969
1.93468
1.89936
1.86706
1.83753
1.80945
1.78495
1.76394
1.74468
1.72574
1.70615
1.68489
1.66215
1.63867
1.61517
1.59236
1.57036
1.54899
1.52799
1.50673
1.4856
1.46377
1.4425
1.42035
1.39893
1.37711
1.35486
1.33344
1.31094
1.28873
1.2674
1.24529
1.22502
1.20591
1.18663
1.16869
1.15223
1.13554
1.11984
1.10517
1.09056
1.07739
1.06732
1.05763
1.04656
1.03868
1.03411
1.03012
1.02706
1.02439
1.02181
1.0194
1.01734
1.01572
1.01447
1.01356
1.01297
1.0127
1.01271
1.0129
1.01338
1.01369
1.01374
1.01371
1.01355
1.0129
1.01124
1.00807
1.00569
1.00461
1.00444
1.00441
1.00385
1.00195
0.99956
0.997944
0.997065
0.99673
0.996705
0.996808
0.997172
0.997729
0.998206
0.998606
0.998935
0.9992
0.99941
0.999572
0.999695
0.999786
0.999852
0.999899
0.999933
0.999955
0.999972
0.999979
1.8228
1.92599
1.97275
1.96315
1.94832
1.91795
1.88571
1.852
1.82126
1.79453
1.77059
1.74857
1.72882
1.71009
1.69047
1.66945
1.64721
1.62431
1.60136
1.57885
1.55671
1.53487
1.51296
1.49094
1.46876
1.44642
1.42413
1.40181
1.37954
1.35728
1.335
1.31245
1.29056
1.26821
1.24669
1.22593
1.20498
1.18578
1.16776
1.1494
1.13266
1.11714
1.10137
1.08699
1.07448
1.06189
1.05159
1.04372
1.03502
1.02641
1.02231
1.0191
1.01666
1.01463
1.01264
1.01086
1.00956
1.00879
1.00841
1.00833
1.00844
1.0089
1.00989
1.01092
1.01188
1.01266
1.01306
1.01312
1.01302
1.01245
1.01096
1.00806
1.00579
1.00463
1.00433
1.00418
1.00351
1.00147
0.999175
0.997764
0.997088
0.996893
0.996919
0.99708
0.997522
0.998015
0.998433
0.998783
0.999072
0.999305
0.999488
0.999629
0.999736
0.999815
0.999872
0.999913
0.999942
0.999961
0.999976
0.999982
1.52114
1.81883
1.89258
1.92537
1.91594
1.90002
1.86889
1.83885
1.8076
1.77873
1.75438
1.73324
1.71343
1.69361
1.67365
1.65299
1.63145
1.6092
1.58675
1.56444
1.54231
1.52022
1.498
1.47563
1.45308
1.43051
1.40799
1.38561
1.36337
1.34112
1.319
1.29687
1.27499
1.25377
1.23274
1.21276
1.19367
1.17463
1.15668
1.13923
1.12214
1.1064
1.0919
1.07761
1.06529
1.05494
1.04462
1.03696
1.03079
1.02234
1.01603
1.01377
1.01143
1.00958
1.00775
1.00616
1.00522
1.00496
1.00499
1.00522
1.00587
1.0072
1.00862
1.00999
1.01122
1.01222
1.01278
1.0129
1.01277
1.0121
1.0104
1.00788
1.00593
1.00487
1.00453
1.00419
1.00317
1.00091
0.998816
0.997701
0.997252
0.997171
0.997226
0.997448
0.997895
0.998305
0.998661
0.998961
0.999209
0.999408
0.999565
0.999685
0.999776
0.999843
0.999892
0.999926
0.999951
0.999967
0.999979
0.999985
1.25245
1.54362
1.79385
1.85942
1.87704
1.87014
1.85356
1.82336
1.79583
1.76723
1.74028
1.71707
1.69673
1.67735
1.65766
1.63693
1.6154
1.59355
1.57173
1.5498
1.52787
1.50582
1.48357
1.46114
1.43859
1.41615
1.3939
1.37191
1.35008
1.32835
1.30677
1.28532
1.26439
1.24386
1.22414
1.20496
1.18653
1.16874
1.15108
1.13455
1.11829
1.10247
1.08828
1.07543
1.06349
1.05359
1.04498
1.03696
1.031
1.02572
1.01839
1.01393
1.01231
1.01048
1.00867
1.00702
1.0061
1.00596
1.00605
1.00645
1.00735
1.00879
1.01026
1.01163
1.01275
1.01356
1.01395
1.01394
1.01359
1.01242
1.01029
1.00817
1.0066
1.0057
1.00525
1.00452
1.00283
1.00016
0.998565
0.997825
0.997577
0.997558
0.99763
0.99787
0.998246
0.998587
0.998883
0.999135
0.999342
0.999508
0.999639
0.999739
0.999814
0.99987
0.99991
0.999939
0.999959
0.999972
0.999983
0.999987
1.09878
1.26531
1.53832
1.76084
1.82276
1.83121
1.82523
1.80954
1.78175
1.7567
1.73052
1.7052
1.68255
1.66198
1.64209
1.62182
1.60085
1.57914
1.55714
1.53525
1.51355
1.49187
1.46998
1.4479
1.4258
1.40388
1.38223
1.36087
1.33969
1.31872
1.29794
1.2775
1.25751
1.23807
1.21924
1.20088
1.18312
1.1656
1.14877
1.13251
1.11712
1.10294
1.08989
1.07829
1.06805
1.05851
1.05066
1.04341
1.03682
1.03211
1.02677
1.02085
1.01791
1.01646
1.01465
1.01287
1.01169
1.01145
1.01154
1.01189
1.01271
1.01389
1.01508
1.0161
1.0168
1.01716
1.01712
1.01676
1.01564
1.01371
1.01164
1.00978
1.00846
1.00758
1.00657
1.00461
1.00152
0.999667
0.99867
0.998196
0.998037
0.998031
0.998094
0.998293
0.998592
0.998864
0.999102
0.999304
0.999471
0.999604
0.999709
0.99979
0.99985
0.999895
0.999928
0.999951
0.999967
0.999978
0.999986
0.999989
1.0367
1.09895
1.26108
1.51361
1.72313
1.78156
1.78701
1.78205
1.76816
1.74396
1.72088
1.69602
1.67183
1.6494
1.62829
1.60756
1.58669
1.56552
1.54414
1.52268
1.50117
1.47961
1.45801
1.43642
1.41495
1.39375
1.37285
1.35231
1.33199
1.31194
1.29214
1.27272
1.25369
1.23516
1.21701
1.19922
1.18179
1.16478
1.1485
1.13301
1.11884
1.10595
1.09462
1.0844
1.07525
1.06711
1.05969
1.05328
1.04706
1.04178
1.03756
1.03243
1.02795
1.02598
1.02439
1.02253
1.02111
1.02054
1.02056
1.02073
1.02131
1.02206
1.02262
1.02299
1.02306
1.02285
1.02215
1.0207
1.01888
1.01676
1.01472
1.01305
1.01163
1.0097
1.00591
1.00313
1.00122
0.999933
0.999129
0.998704
0.998549
0.998536
0.998578
0.998715
0.998932
0.999134
0.999313
0.999466
0.999593
0.999695
0.999776
0.999837
0.999884
0.999918
0.999944
0.999961
0.999974
0.999982
0.999989
0.999991
1.01353
1.0355
1.09315
1.24549
1.47464
1.67986
1.73671
1.74445
1.74055
1.72928
1.70916
1.6871
1.66257
1.63886
1.61673
1.59553
1.57466
1.55372
1.53265
1.51159
1.49069
1.46986
1.44899
1.42807
1.40723
1.38669
1.36651
1.34671
1.32719
1.30794
1.28897
1.27038
1.25211
1.23419
1.21648
1.19906
1.18201
1.16565
1.15029
1.1363
1.12378
1.11254
1.10238
1.09308
1.08482
1.07713
1.0703
1.06417
1.05845
1.05328
1.04898
1.04517
1.04078
1.03766
1.03633
1.03462
1.03311
1.03212
1.03167
1.03168
1.03173
1.03182
1.03177
1.03154
1.03085
1.02965
1.02796
1.02594
1.02373
1.02155
1.01945
1.01654
1.01211
1.00854
1.00566
1.0034
1.00171
1.00052
0.999739
0.999288
0.999091
0.999053
0.999068
0.999128
0.999258
0.99939
0.999512
0.999618
0.999706
0.999779
0.999836
0.999881
0.999914
0.999939
0.999958
0.999971
0.999981
0.999987
0.999992
0.999993
1.00519
1.01133
1.03305
1.08148
1.21934
1.42596
1.63061
1.68892
1.70327
1.70047
1.69196
1.67599
1.65407
1.63023
1.60784
1.5867
1.56586
1.54492
1.524
1.50327
1.48279
1.46252
1.4423
1.42212
1.40205
1.38226
1.36283
1.34374
1.32493
1.30636
1.28804
1.26999
1.25213
1.23448
1.21715
1.2003
1.18417
1.16918
1.15556
1.14324
1.13198
1.12171
1.1123
1.10371
1.09585
1.08871
1.08214
1.07614
1.07085
1.06572
1.06131
1.05779
1.05414
1.05072
1.04879
1.04732
1.04576
1.04453
1.04386
1.04349
1.04304
1.04257
1.04179
1.04068
1.03915
1.03719
1.03494
1.03252
1.02988
1.0258
1.02096
1.01655
1.01255
1.00911
1.00628
1.00405
1.00238
1.00121
1.00042
0.999941
0.999661
0.999533
0.99951
0.999519
0.999555
0.999621
0.999689
0.999751
0.999806
0.999852
0.999889
0.999918
0.999941
0.999958
0.99997
0.999979
0.999986
0.99999
0.999994
0.999995
1.00146
1.0041
1.01
1.02708
1.06874
1.18187
1.36964
1.57084
1.64061
1.66467
1.66219
1.65435
1.64244
1.62216
1.60125
1.5809
1.56046
1.5397
1.51892
1.49827
1.47793
1.45804
1.43846
1.41899
1.39959
1.38039
1.36149
1.34291
1.32454
1.30634
1.28828
1.27053
1.25316
1.23623
1.21986
1.20436
1.18987
1.17645
1.16403
1.15264
1.1422
1.13263
1.12379
1.11567
1.10819
1.10131
1.09499
1.08915
1.08387
1.0791
1.07458
1.0709
1.06787
1.06444
1.06226
1.06058
1.05904
1.0577
1.0567
1.05584
1.0548
1.05365
1.05208
1.05025
1.04799
1.04545
1.04213
1.03745
1.03255
1.02744
1.02233
1.01756
1.01336
1.00982
1.00695
1.00473
1.00307
1.00189
1.00107
1.00053
1.00019
0.999983
0.99987
0.999817
0.999811
0.999816
0.999835
0.999861
0.999888
0.999911
0.999932
0.999949
0.999962
0.999973
0.999981
0.999986
0.999991
0.999993
0.999996
0.999996
1.00043
1.00128
1.00296
1.00832
1.02054
1.0549
1.14165
1.30458
1.4945
1.59589
1.62767
1.62505
1.61865
1.60914
1.59332
1.57581
1.55707
1.5374
1.51699
1.49657
1.47652
1.45695
1.43772
1.41861
1.39947
1.38047
1.36175
1.34336
1.32524
1.30738
1.28985
1.2728
1.25641
1.24085
1.22598
1.21179
1.19836
1.18582
1.17428
1.16369
1.15397
1.14496
1.13659
1.12879
1.12156
1.11487
1.10867
1.10296
1.09774
1.09302
1.08871
1.0849
1.08189
1.07893
1.07601
1.07436
1.07286
1.07134
1.06987
1.06838
1.06669
1.06473
1.06246
1.05954
1.05584
1.05148
1.0464
1.0407
1.03469
1.02875
1.02317
1.01816
1.01386
1.01028
1.00742
1.00523
1.0036
1.00241
1.00157
1.00098
1.00058
1.00032
1.00015
1.00004
0.999986
0.999955
0.999945
0.999944
0.999949
0.999956
0.999964
0.999972
0.999979
0.999984
0.999988
0.999992
0.999994
0.999996
0.999998
0.999997
1.00013
1.00034
1.00087
1.00232
1.00576
1.01559
1.03915
1.10245
1.23501
1.41056
1.55876
1.58971
1.58693
1.58409
1.5774
1.56635
1.55201
1.53513
1.51631
1.49691
1.47723
1.45783
1.43875
1.41983
1.40095
1.38219
1.3638
1.34581
1.32815
1.3109
1.29428
1.27839
1.26323
1.24861
1.23454
1.22109
1.2085
1.19685
1.18614
1.17632
1.16718
1.15861
1.15051
1.14294
1.13586
1.12927
1.12318
1.11754
1.11238
1.10769
1.10345
1.09968
1.09649
1.09357
1.0906
1.08839
1.08682
1.08493
1.08285
1.08057
1.07799
1.07498
1.07136
1.06701
1.0618
1.05578
1.04916
1.04228
1.03548
1.02906
1.02322
1.01809
1.01374
1.01022
1.00748
1.00539
1.00383
1.00267
1.00183
1.00123
1.00081
1.00051
1.00031
1.00018
1.0001
1.00004
1.00001
0.999997
0.999989
0.999986
0.999986
0.999988
0.99999
0.999992
0.999994
0.999995
0.999997
0.999998
0.999999
0.999998
1.00003
1.00009
1.00021
1.00063
1.00147
1.00416
1.01003
1.02741
1.06745
1.1688
1.31906
1.48651
1.54038
1.55379
1.55062
1.54661
1.54013
1.52916
1.51442
1.49722
1.47968
1.46142
1.44301
1.42463
1.40628
1.38802
1.37001
1.35251
1.33538
1.31864
1.30253
1.28716
1.27249
1.25847
1.24504
1.23236
1.22058
1.2098
1.19986
1.1906
1.18186
1.17349
1.16556
1.15806
1.15106
1.14455
1.1385
1.13292
1.12778
1.12309
1.11885
1.11503
1.11162
1.10843
1.10531
1.1027
1.10062
1.09803
1.09502
1.09171
1.08793
1.08348
1.07817
1.07197
1.065
1.0575
1.04979
1.04217
1.03487
1.02807
1.022
1.01689
1.01278
1.00956
1.00706
1.00515
1.00371
1.00264
1.00185
1.00127
1.00086
1.00057
1.00037
1.00024
1.00015
1.00009
1.00005
1.00002
1.00001
1
0.999999
0.999997
0.999997
0.999997
0.999997
0.999998
0.999998
0.999999
0.999999
0.999999
1.00001
1.00002
1.00006
1.00013
1.0004
1.00087
1.00272
1.00586
1.01763
1.04048
1.10786
1.2185
1.37736
1.4912
1.51756
1.52046
1.51689
1.51197
1.50539
1.49449
1.4798
1.46415
1.44792
1.43121
1.41407
1.39655
1.37908
1.36193
1.34525
1.32887
1.31312
1.29829
1.28422
1.27074
1.25796
1.24599
1.23498
1.22489
1.21549
1.20655
1.19789
1.18959
1.1816
1.17414
1.16717
1.16072
1.15468
1.14908
1.1439
1.13912
1.13473
1.13069
1.12691
1.12325
1.11976
1.11675
1.11363
1.10976
1.10546
1.10062
1.09505
1.08867
1.08149
1.07365
1.06536
1.05686
1.04828
1.03981
1.03187
1.02497
1.01931
1.01477
1.01117
1.00836
1.00618
1.00452
1.00327
1.00233
1.00165
1.00115
1.00079
1.00054
1.00036
1.00024
1.00015
1.0001
1.00006
1.00003
1.00002
1.00001
1.00001
1
1
1
0.999999
0.999999
0.999999
0.999999
1
0.999999
1
1.00001
1.00001
1.00004
1.00007
1.00024
1.00048
1.0016
1.00325
1.01022
1.0224
1.06104
1.13915
1.25136
1.4035
1.47538
1.4816
1.48746
1.48523
1.48001
1.47218
1.46153
1.44813
1.43387
1.41885
1.40329
1.38737
1.37151
1.35603
1.3408
1.32582
1.31156
1.29819
1.28539
1.27321
1.26187
1.25142
1.24177
1.23261
1.2237
1.21495
1.2065
1.19853
1.19106
1.18408
1.17754
1.17141
1.16567
1.16031
1.15526
1.15051
1.14593
1.1415
1.13713
1.13299
1.12887
1.1238
1.11824
1.11216
1.10544
1.09803
1.08999
1.0814
1.07232
1.06269
1.05258
1.04267
1.03389
1.0266
1.02068
1.01589
1.01208
1.00908
1.00675
1.00497
1.00362
1.00262
1.00187
1.00132
1.00093
1.00064
1.00044
1.0003
1.0002
1.00013
1.00008
1.00005
1.00003
1.00002
1.00001
1.00001
1
1
1
1
1
1
1
1
1
1
1
1
1.00001
1.00002
1.00004
1.00012