/*--------------------------------*- C++ -*----------------------------------*\
  =========                 |
  \\      /  F ield         | OpenFOAM: The Open Source CFD Toolbox
   \\    /   O peration     | Website:  https://openfoam.org
    \\  /    A nd           | Version:  13
     \\/     M anipulation  |
\*---------------------------------------------------------------------------*/
FoamFile
{
    format      ascii;
    class       volVectorField;
    location    "0.5";
    object      U;
}
// * * * * * * * * * * * * * * * * * * * * * * * * * * * * * * * * * * * * * //

dimensions      [0 1 -1 0 0 0 0];

internalField   nonuniform List<vector> 
5250
(
(3 6.10418e-10 0)
(3 4.01503e-09 0)
(3 1.36085e-08 0)
(3 4.08183e-08 0)
(2.99999 1.07946e-07 0)
(2.99997 2.91632e-07 0)
(2.99992 7.44505e-07 0)
(2.9998 1.96967e-06 0)
(2.99948 5.00674e-06 0)
(2.99869 1.30779e-05 0)
(2.99666 3.33219e-05 0)
(2.99144 8.59729e-05 0)
(2.9779 0.000220724 0)
(2.941 0.000576053 0)
(2.83378 0.0015681 0)
(2.50035 0.00452975 0)
(1.50056 0.013528 0)
(0.551593 0.0353974 0)
(0.279302 0.0298757 0)
(0.429379 0.0298846 0)
(0.4085 0.0334998 0)
(0.295634 0.0389285 0)
(0.206991 0.043886 0)
(0.109777 0.0463439 0)
(0.0379569 0.0430897 0)
(3 2.12603e-09 0)
(3 1.13931e-08 0)
(3 4.41713e-08 0)
(3 1.17523e-07 0)
(2.99999 3.38493e-07 0)
(2.99997 8.49282e-07 0)
(2.99992 2.30791e-06 0)
(2.9998 5.69567e-06 0)
(2.99949 1.58346e-05 0)
(2.99871 3.78149e-05 0)
(2.99672 0.000105233 0)
(2.9916 0.000252663 0)
(2.97831 0.000684679 0)
(2.94212 0.00174164 0)
(2.83708 0.00481497 0)
(2.5102 0.0139295 0)
(1.52443 0.0416754 0)
(0.564812 0.106343 0)
(0.275321 0.0845757 0)
(0.430806 0.0795845 0)
(0.410573 0.0849108 0)
(0.297538 0.093544 0)
(0.20972 0.10036 0)
(0.115108 0.10447 0)
(0.0406406 0.0990337 0)
(3 3.29118e-09 0)
(3 1.86064e-08 0)
(3 6.95461e-08 0)
(3 1.91092e-07 0)
(2.99999 5.39178e-07 0)
(2.99997 1.372e-06 0)
(2.99992 3.6919e-06 0)
(2.99981 9.27195e-06 0)
(2.99951 2.52582e-05 0)
(2.99876 6.21173e-05 0)
(2.99684 0.000169693 0)
(2.99193 0.00041766 0)
(2.97914 0.00112071 0)
(2.94444 0.0028876 0)
(2.84398 0.00798155 0)
(2.53127 0.0232493 0)
(1.57832 0.0701057 0)
(0.595728 0.182544 0)
(0.27149 0.143331 0)
(0.436914 0.133494 0)
(0.419466 0.143838 0)
(0.306121 0.159128 0)
(0.217712 0.171317 0)
(0.123177 0.180142 0)
(0.0432502 0.173569 0)
(3 3.9317e-09 0)
(3 2.52476e-08 0)
(3 8.67368e-08 0)
(3 2.55814e-07 0)
(2.99999 6.85998e-07 0)
(2.99997 1.81019e-06 0)
(2.99993 4.7223e-06 0)
(2.99982 1.23128e-05 0)
(2.99954 3.2047e-05 0)
(2.99883 8.32941e-05 0)
(2.99702 0.00021811 0)
(2.99239 0.000562734 0)
(2.98037 0.00147503 0)
(2.94785 0.0038836 0)
(2.85416 0.0106909 0)
(2.56265 0.0313177 0)
(1.66246 0.0952094 0)
(0.645015 0.255604 0)
(0.269738 0.201555 0)
(0.44814 0.187474 0)
(0.435756 0.203639 0)
(0.321744 0.226039 0)
(0.231375 0.244887 0)
(0.134882 0.259797 0)
(0.046877 0.253643 0)
(3 4.64526e-09 0)
(3 3.01406e-08 0)
(3 1.02713e-07 0)
(3 3.02364e-07 0)
(2.99999 8.06105e-07 0)
(2.99997 2.10543e-06 0)
(2.99993 5.48624e-06 0)
(2.99983 1.42098e-05 0)
(2.99957 3.69933e-05 0)
(2.99892 9.62303e-05 0)
(2.99724 0.000253574 0)
(2.99297 0.00065603 0)
(2.98192 0.00173824 0)
(2.95215 0.00459338 0)
(2.86706 0.0127344 0)
(2.60294 0.0374321 0)
(1.77583 0.115537 0)
(0.713978 0.322209 0)
(0.274777 0.259538 0)
(0.464001 0.243001 0)
(0.457712 0.26467 0)
(0.343309 0.293439 0)
(0.250667 0.320007 0)
(0.151131 0.342202 0)
(0.052512 0.338798 0)
(3 5.27932e-09 0)
(3 3.42248e-08 0)
(3 1.16104e-07 0)
(3 3.39407e-07 0)
(2.99999 8.91249e-07 0)
(2.99998 2.31739e-06 0)
(2.99994 5.93645e-06 0)
(2.99985 1.51735e-05 0)
(2.99961 3.9199e-05 0)
(2.99901 0.000101219 0)
(2.99748 0.000265752 0)
(2.99363 0.000690985 0)
(2.98366 0.00184182 0)
(2.95705 0.00489819 0)
(2.88189 0.0137164 0)
(2.65036 0.0404645 0)
(1.91737 0.127926 0)
(0.807293 0.375357 0)
(0.293374 0.315281 0)
(0.484133 0.302308 0)
(0.483782 0.329044 0)
(0.370551 0.363024 0)
(0.276017 0.39961 0)
(0.172553 0.431172 0)
(0.0614948 0.434338 0)
(3 5.88449e-09 0)
(3 3.82916e-08 0)
(3 1.29146e-07 0)
(3 3.7632e-07 0)
(2.99999 9.74596e-07 0)
(2.99998 2.53205e-06 0)
(2.99994 6.38666e-06 0)
(2.99986 1.59327e-05 0)
(2.99964 4.09033e-05 0)
(2.99911 0.000101487 0)
(2.99773 0.000265389 0)
(2.99429 0.000670228 0)
(2.98543 0.00177974 0)
(2.9621 0.0046766 0)
(2.89721 0.013095 0)
(2.7011 0.0384712 0)
(2.08077 0.124572 0)
(0.927361 0.391739 0)
(0.331871 0.366693 0)
(0.508084 0.368441 0)
(0.511154 0.398244 0)
(0.403608 0.435826 0)
(0.309483 0.484498 0)
(0.201346 0.528704 0)
(0.0759148 0.545579 0)
(3 6.64986e-09 0)
(3 4.30762e-08 0)
(3 1.43655e-07 0)
(3 4.21403e-07 0)
(2.99999 1.07383e-06 0)
(2.99998 2.79427e-06 0)
(2.99995 6.90649e-06 0)
(2.99987 1.72683e-05 0)
(2.99968 4.32689e-05 0)
(2.9992 0.000106177 0)
(2.99796 0.000270622 0)
(2.99489 0.000663873 0)
(2.98701 0.00171731 0)
(2.96653 0.00435106 0)
(2.91053 0.0118407 0)
(2.74614 0.0334572 0)
(2.2393 0.106022 0)
(1.07006 0.346166 0)
(0.393268 0.423222 0)
(0.531755 0.445953 0)
(0.536167 0.472352 0)
(0.442499 0.51336 0)
(0.353177 0.57475 0)
(0.241773 0.637023 0)
(0.100278 0.681604 0)
(3 7.07574e-09 0)
(3 4.57019e-08 0)
(3 1.52922e-07 0)
(3 4.48481e-07 0)
(2.99999 1.14637e-06 0)
(2.99998 2.99692e-06 0)
(2.99996 7.35017e-06 0)
(2.99989 1.87415e-05 0)
(2.99972 4.59326e-05 0)
(2.99929 0.000115866 0)
(2.99819 0.000285503 0)
(2.99549 0.000713778 0)
(2.98851 0.00178426 0)
(2.97055 0.00447307 0)
(2.92169 0.0117206 0)
(2.78054 0.0317733 0)
(2.35358 0.0936311 0)
(1.23833 0.288518 0)
(0.485093 0.493734 0)
(0.550083 0.529363 0)
(0.556832 0.544511 0)
(0.48864 0.594784 0)
(0.410658 0.668848 0)
(0.303702 0.757862 0)
(0.144458 0.85811 0)
(3 6.8975e-09 0)
(3 4.48842e-08 0)
(3 1.52041e-07 0)
(3 4.43638e-07 0)
(2.99999 1.15798e-06 0)
(2.99999 3.03332e-06 0)
(2.99996 7.55576e-06 0)
(2.99991 1.93776e-05 0)
(2.99976 4.76703e-05 0)
(2.9994 0.000121549 0)
(2.99845 0.000297796 0)
(2.99614 0.000756045 0)
(2.99014 0.00186577 0)
(2.9748 0.00471626 0)
(2.93329 0.012125 0)
(2.81412 0.0326067 0)
(2.45469 0.0924839 0)
(1.44183 0.268598 0)
(0.617662 0.565103 0)
(0.564024 0.598436 0)
(0.579992 0.611563 0)
(0.548835 0.672548 0)
(0.487599 0.763978 0)
(0.404661 0.901356 0)
(0.225971 1.14189 0)
(3 6.24749e-09 0)
(3 4.21256e-08 0)
(3 1.4058e-07 0)
(3 4.18721e-07 0)
(3 1.08322e-06 0)
(2.99999 2.91329e-06 0)
(2.99997 7.11882e-06 0)
(2.99992 1.90341e-05 0)
(2.9998 4.53141e-05 0)
(2.9995 0.000121516 0)
(2.99872 0.000286032 0)
(2.9968 0.000765955 0)
(2.99181 0.00181579 0)
(2.97909 0.00477307 0)
(2.94489 0.0119421 0)
(2.84725 0.0322335 0)
(2.55089 0.0908446 0)
(1.67005 0.262853 0)
(0.778035 0.629963 0)
(0.588682 0.652764 0)
(0.621019 0.672757 0)
(0.627555 0.738271 0)
(0.603216 0.845625 0)
(0.606832 1.01391 0)
(0.652432 1.29862 0)
(3 5.61222e-09 0)
(3 3.70157e-08 0)
(3 1.2363e-07 0)
(3 3.70953e-07 0)
(3 9.5305e-07 0)
(2.99999 2.58858e-06 0)
(2.99998 6.38414e-06 0)
(2.99994 1.69066e-05 0)
(2.99984 4.18059e-05 0)
(2.9996 0.000108436 0)
(2.99899 0.000271402 0)
(2.99742 0.000694813 0)
(2.99348 0.00175436 0)
(2.98323 0.00446885 0)
(2.95614 0.0115408 0)
(2.87963 0.0306799 0)
(2.64655 0.0875502 0)
(1.9254 0.258625 0)
(0.970903 0.690061 0)
(0.6386 0.712428 0)
(0.683828 0.733372 0)
(0.722859 0.790751 0)
(0.734107 0.897651 0)
(0.795954 1.05845 0)
(0.963053 1.27901 0)
(3 4.76677e-09 0)
(3 3.19391e-08 0)
(3 1.0516e-07 0)
(3 3.19108e-07 0)
(3 8.09214e-07 0)
(2.99999 2.20457e-06 0)
(2.99998 5.42232e-06 0)
(2.99995 1.42878e-05 0)
(2.99988 3.55064e-05 0)
(2.99969 9.1604e-05 0)
(2.99921 0.000231098 0)
(2.99804 0.000587755 0)
(2.99496 0.00149815 0)
(2.98724 0.00381469 0)
(2.96676 0.00984813 0)
(2.91049 0.0262327 0)
(2.74188 0.0740802 0)
(2.21172 0.225366 0)
(1.21651 0.677647 0)
(0.735165 0.756357 0)
(0.764001 0.798593 0)
(0.817991 0.835511 0)
(0.85783 0.923226 0)
(0.943844 1.05528 0)
(1.13287 1.2012 0)
(3 4.10556e-09 0)
(3 2.65246e-08 0)
(3 9.1836e-08 0)
(3 2.62512e-07 0)
(3 7.05316e-07 0)
(2.99999 1.81639e-06 0)
(2.99999 4.62833e-06 0)
(2.99996 1.18992e-05 0)
(2.99991 2.93508e-05 0)
(2.99976 7.69872e-05 0)
(2.99941 0.000185519 0)
(2.99847 0.00049237 0)
(2.99617 0.00118273 0)
(2.99019 0.00312256 0)
(2.97485 0.00772911 0)
(2.93314 0.0205858 0)
(2.81263 0.056066 0)
(2.44601 0.168776 0)
(1.49268 0.543572 0)
(0.869388 0.787245 0)
(0.84215 0.85513 0)
(0.888213 0.881963 0)
(0.956158 0.938529 0)
(1.05285 1.03523 0)
(1.22964 1.13099 0)
(3 3.64774e-09 0)
(3 2.1114e-08 0)
(3 7.81168e-08 0)
(3 2.10053e-07 0)
(3 5.98242e-07 0)
(3 1.45787e-06 0)
(2.99999 3.986e-06 0)
(2.99997 9.52982e-06 0)
(2.99993 2.57934e-05 0)
(2.99982 6.16882e-05 0)
(2.99956 0.000164989 0)
(2.99887 0.000397843 0)
(2.99715 0.00105048 0)
(2.99269 0.00256586 0)
(2.9813 0.00668391 0)
(2.95072 0.0169878 0)
(2.86381 0.0458752 0)
(2.60047 0.131286 0)
(1.81341 0.404862 0)
(1.05527 0.839993 0)
(0.914685 0.901488 0)
(0.945403 0.927088 0)
(1.02729 0.953683 0)
(1.13411 1.01567 0)
(1.29226 1.07919 0)
(3 2.68439e-09 0)
(3 1.70759e-08 0)
(3 5.81742e-08 0)
(3 1.70851e-07 0)
(3 4.47794e-07 0)
(3 1.18202e-06 0)
(2.99999 3.00529e-06 0)
(2.99998 7.67959e-06 0)
(2.99995 1.97474e-05 0)
(2.99988 4.93997e-05 0)
(2.99969 0.000128641 0)
(2.99921 0.000317672 0)
(2.99798 0.000833598 0)
(2.99488 0.00205386 0)
(2.98686 0.00537806 0)
(2.96575 0.0136359 0)
(2.90708 0.0367609 0)
(2.73035 0.103636 0)
(2.17009 0.318064 0)
(1.32751 0.842985 0)
(1.01754 0.927251 0)
(1.01728 0.961101 0)
(1.09032 0.973387 0)
(1.19998 1.00234 0)
(1.34061 1.04199 0)
(3 1.92797e-09 0)
(3 1.32065e-08 0)
(3 4.30734e-08 0)
(3 1.31681e-07 0)
(3 3.31797e-07 0)
(3 9.09903e-07 0)
(2.99999 2.19873e-06 0)
(2.99999 5.91134e-06 0)
(2.99997 1.42305e-05 0)
(2.99992 3.79174e-05 0)
(2.99978 9.18742e-05 0)
(2.99946 0.000242435 0)
(2.99859 0.000593479 0)
(2.99648 0.00155265 0)
(2.99096 0.0038609 0)
(2.97684 0.0100675 0)
(2.9386 0.0263063 0)
(2.82898 0.0728781 0)
(2.49308 0.220886 0)
(1.6584 0.689968 0)
(1.16753 0.920433 0)
(1.1057 0.978148 0)
(1.14754 0.998305 0)
(1.24991 1.00496 0)
(1.38059 1.02327 0)
(3 1.48759e-09 0)
(3 9.40758e-09 0)
(3 3.28612e-08 0)
(3 9.34102e-08 0)
(3 2.52045e-07 0)
(3 6.48345e-07 0)
(3 1.66167e-06 0)
(2.99999 4.24897e-06 0)
(2.99998 1.06707e-05 0)
(2.99994 2.75202e-05 0)
(2.99986 6.83173e-05 0)
(2.99963 0.000177536 0)
(2.99907 0.000438952 0)
(2.99761 0.0011433 0)
(2.99395 0.00284331 0)
(2.98443 0.00737846 0)
(2.95925 0.0189122 0)
(2.88849 0.0509494 0)
(2.67571 0.145809 0)
(2.02772 0.461561 0)
(1.36641 0.930487 0)
(1.19997 1.0012 0)
(1.21089 1.03073 0)
(1.29322 1.02618 0)
(1.4142 1.02049 0)
(3 1.06937e-09 0)
(3 6.56472e-09 0)
(3 2.31931e-08 0)
(3 6.53008e-08 0)
(3 1.77569e-07 0)
(3 4.51371e-07 0)
(3 1.18026e-06 0)
(2.99999 2.93781e-06 0)
(2.99999 7.63338e-06 0)
(2.99996 1.8941e-05 0)
(2.99991 4.92315e-05 0)
(2.99976 0.00012208 0)
(2.9994 0.000317144 0)
(2.99848 0.0007894 0)
(2.99615 0.00204627 0)
(2.99023 0.00514495 0)
(2.9748 0.0133612 0)
(2.93322 0.0352251 0)
(2.81285 0.0984184 0)
(2.43183 0.303845 0)
(1.68234 0.823196 0)
(1.33259 0.9951 0)
(1.29203 1.04262 0)
(1.33642 1.04787 0)
(1.44073 1.02807 0)
(3 6.93172e-10 0)
(3 4.54827e-09 0)
(3 1.52429e-08 0)
(3 4.52676e-08 0)
(3 1.17421e-07 0)
(3 3.12376e-07 0)
(3 7.81744e-07 0)
(3 2.03049e-06 0)
(2.99999 5.07238e-06 0)
(2.99998 1.30159e-05 0)
(2.99994 3.27205e-05 0)
(2.99985 8.32849e-05 0)
(2.99963 0.000210328 0)
(2.99905 0.000532452 0)
(2.99758 0.00135246 0)
(2.99385 0.00341298 0)
(2.98428 0.00873167 0)
(2.95878 0.0225357 0)
(2.88782 0.0606527 0)
(2.67386 0.17637 0)
(2.05731 0.551006 0)
(1.51555 0.970784 0)
(1.38515 1.04566 0)
(1.39151 1.06898 0)
(1.46888 1.0523 0)
(3 4.67934e-10 0)
(3 2.83173e-09 0)
(3 1.01702e-08 0)
(3 2.82025e-08 0)
(3 7.81408e-08 0)
(3 1.96498e-07 0)
(3 5.18192e-07 0)
(3 1.2889e-06 0)
(2.99999 3.34372e-06 0)
(2.99999 8.36812e-06 0)
(2.99996 2.14403e-05 0)
(2.99991 5.41452e-05 0)
(2.99977 0.000137383 0)
(2.99944 0.000349526 0)
(2.99855 0.000880619 0)
(2.99637 0.00225596 0)
(2.99071 0.00569055 0)
(2.97625 0.014687 0)
(2.93714 0.0386365 0)
(2.82531 0.107406 0)
(2.47069 0.332509 0)
(1.81665 0.839186 0)
(1.51068 1.02388 0)
(1.46796 1.07383 0)
(1.50429 1.07873 0)
(3 2.77271e-10 0)
(3 1.80434e-09 0)
(3 6.12882e-09 0)
(3 1.80205e-08 0)
(3 4.72963e-08 0)
(3 1.25649e-07 0)
(3 3.15287e-07 0)
(3 8.22985e-07 0)
(3 2.04654e-06 0)
(2.99999 5.31949e-06 0)
(2.99998 1.32027e-05 0)
(2.99995 3.41665e-05 0)
(2.99987 8.48868e-05 0)
(2.99967 0.000218218 0)
(2.99917 0.000543992 0)
(2.99786 0.00139043 0)
(2.99463 0.0034887 0)
(2.98616 0.00889427 0)
(2.964 0.022899 0)
(2.90268 0.0611193 0)
(2.71879 0.176975 0)
(2.19252 0.538965 0)
(1.70148 0.965486 0)
(1.56549 1.06199 0)
(1.55956 1.0908 0)
(3 1.70934e-10 0)
(3 1.04713e-09 0)
(3 3.70035e-09 0)
(3 1.04692e-08 0)
(3 2.85088e-08 0)
(3 7.30397e-08 0)
(3 1.90976e-07 0)
(3 4.77424e-07 0)
(3 1.24734e-06 0)
(3 3.08243e-06 0)
(2.99999 8.06731e-06 0)
(2.99997 1.98442e-05 0)
(2.99993 5.19775e-05 0)
(2.99982 0.000127725 0)
(2.99953 0.000334066 0)
(2.99883 0.000823872 0)
(2.99696 0.00214348 0)
(2.99239 0.00536128 0)
(2.98035 0.0138628 0)
(2.94864 0.0362549 0)
(2.8596 0.0996398 0)
(2.58306 0.303962 0)
(2.01171 0.782276 0)
(1.7002 1.02236 0)
(1.63907 1.08524 0)
(3 9.31852e-11 0)
(3 5.96281e-10 0)
(3 2.06661e-09 0)
(3 5.957e-09 0)
(3 1.60259e-08 0)
(3 4.18067e-08 0)
(3 1.07296e-07 0)
(3 2.76741e-07 0)
(3 6.97911e-07 0)
(3 1.81198e-06 0)
(2.99999 4.51183e-06 0)
(2.99998 1.17788e-05 0)
(2.99996 2.9079e-05 0)
(2.9999 7.62664e-05 0)
(2.99975 0.00018691 0)
(2.99937 0.000491726 0)
(2.99841 0.00120154 0)
(2.99592 0.00315232 0)
(2.98967 0.00778683 0)
(2.97314 0.020347 0)
(2.92851 0.0531772 0)
(2.7972 0.150266 0)
(2.40297 0.450772 0)
(1.92057 0.906108 0)
(1.74114 1.05382 0)
(3 4.9885e-11 0)
(3 3.25109e-10 0)
(3 1.09637e-09 0)
(3 3.26267e-09 0)
(3 8.54701e-09 0)
(3 2.29148e-08 0)
(3 5.79387e-08 0)
(3 1.51511e-07 0)
(3 3.81619e-07 0)
(3 9.86786e-07 0)
(3 2.48986e-06 0)
(2.99999 6.38079e-06 0)
(2.99998 1.61947e-05 0)
(2.99995 4.09497e-05 0)
(2.99987 0.00010475 0)
(2.99967 0.000261635 0)
(2.99918 0.000673417 0)
(2.99787 0.00167356 0)
(2.99466 0.00432707 0)
(2.98618 0.0108611 0)
(2.96392 0.0285526 0)
(2.90257 0.0764932 0)
(2.71514 0.22752 0)
(2.25672 0.634433 0)
(1.90672 0.974115 0)
(3 2.59161e-11 0)
(3 1.64787e-10 0)
(3 5.65472e-10 0)
(3 1.65834e-09 0)
(3 4.41592e-09 0)
(3 1.17174e-08 0)
(3 3.01501e-08 0)
(3 7.78069e-08 0)
(3 2.00153e-07 0)
(3 5.0871e-07 0)
(3 1.31375e-06 0)
(3 3.30085e-06 0)
(2.99999 8.58229e-06 0)
(2.99998 2.13138e-05 0)
(2.99994 5.57534e-05 0)
(2.99984 0.000137397 0)
(2.99959 0.000360431 0)
(2.99897 0.000887012 0)
(2.99732 0.0023264 0)
(2.99326 0.00579282 0)
(2.98255 0.0151243 0)
(2.95449 0.0394814 0)
(2.87608 0.109045 0)
(2.63803 0.32757 0)
(2.18681 0.76581 0)
(3 1.23977e-11 0)
(3 7.89258e-11 0)
(3 2.75305e-10 0)
(3 7.96101e-10 0)
(3 2.16494e-09 0)
(3 5.69103e-09 0)
(3 1.48e-08 0)
(3 3.83116e-08 0)
(3 9.82234e-08 0)
(3 2.54592e-07 0)
(3 6.4443e-07 0)
(3 1.67817e-06 0)
(3 4.20666e-06 0)
(2.99999 1.0987e-05 0)
(2.99997 2.73491e-05 0)
(2.99993 7.17138e-05 0)
(2.99981 0.000177604 0)
(2.99951 0.000465898 0)
(2.99874 0.00115221 0)
(2.99683 0.00301397 0)
(2.99187 0.00751905 0)
(2.97916 0.0196151 0)
(2.94508 0.0511948 0)
(2.84687 0.143265 0)
(2.5606 0.411167 0)
(3 5.55633e-12 0)
(3 3.63289e-11 0)
(3 1.24799e-10 0)
(3 3.6849e-10 0)
(3 9.89365e-10 0)
(3 2.65963e-09 0)
(3 6.81918e-09 0)
(3 1.80793e-08 0)
(3 4.56776e-08 0)
(3 1.20811e-07 0)
(3 3.02968e-07 0)
(3 8.00904e-07 0)
(3 1.99886e-06 0)
(2.99999 5.27324e-06 0)
(2.99999 1.3115e-05 0)
(2.99997 3.44984e-05 0)
(2.99991 8.56364e-05 0)
(2.99978 0.000224353 0)
(2.99944 0.00055681 0)
(2.99856 0.00144862 0)
(2.99636 0.00360973 0)
(2.99061 0.00933842 0)
(2.97569 0.0237953 0)
(2.93539 0.0633896 0)
(2.8152 0.180242 0)
(3 2.40432e-12 0)
(3 1.56611e-11 0)
(3 5.33611e-11 0)
(3 1.59755e-10 0)
(3 4.2718e-10 0)
(3 1.15973e-09 0)
(3 2.99261e-09 0)
(3 7.93753e-09 0)
(3 2.03243e-08 0)
(3 5.33956e-08 0)
(3 1.36341e-07 0)
(3 3.5596e-07 0)
(3 9.10584e-07 0)
(3 2.35381e-06 0)
(2.99999 6.04874e-06 0)
(2.99999 1.54631e-05 0)
(2.99996 3.98095e-05 0)
(2.9999 0.000100918 0)
(2.99976 0.000260164 0)
(2.99938 0.000653907 0)
(2.99844 0.00169168 0)
(2.99593 0.00424764 0)
(2.98967 0.0109998 0)
(2.97283 0.0283941 0)
(2.9273 0.0763117 0)
(3 9.87671e-13 0)
(3 6.28193e-12 0)
(3 2.16083e-11 0)
(3 6.4634e-11 0)
(3 1.73843e-10 0)
(3 4.74647e-10 0)
(3 1.23279e-09 0)
(3 3.28815e-09 0)
(3 8.51053e-09 0)
(3 2.23351e-08 0)
(3 5.79183e-08 0)
(3 1.50177e-07 0)
(3 3.89826e-07 0)
(3 1.00211e-06 0)
(3 2.60883e-06 0)
(2.99999 6.62961e-06 0)
(2.99999 1.73417e-05 0)
(2.99996 4.35157e-05 0)
(2.9999 0.000114216 0)
(2.99975 0.000283999 0)
(2.99935 0.000747185 0)
(2.99836 0.00185495 0)
(2.99576 0.00487495 0)
(2.98907 0.0122791 0)
(2.97133 0.0325688 0)
(3 3.53504e-13 0)
(3 2.36146e-12 0)
(3 8.07511e-12 0)
(3 2.44325e-11 0)
(3 6.56499e-11 0)
(3 1.81866e-10 0)
(3 4.71528e-10 0)
(3 1.27923e-09 0)
(3 3.28624e-09 0)
(3 8.84186e-09 0)
(3 2.25329e-08 0)
(3 6.04672e-08 0)
(3 1.52933e-07 0)
(3 4.09909e-07 0)
(3 1.03004e-06 0)
(3 2.75048e-06 0)
(2.99999 6.88139e-06 0)
(2.99999 1.82813e-05 0)
(2.99996 4.56138e-05 0)
(2.99991 0.000120525 0)
(2.99975 0.000301278 0)
(2.99937 0.000789939 0)
(2.99835 0.00198986 0)
(2.99582 0.0051815 0)
(2.98904 0.0132555 0)
(3 1.13016e-13 0)
(3 7.8391e-13 0)
(3 2.83125e-12 0)
(3 8.32039e-12 0)
(3 2.37085e-11 0)
(3 6.32285e-11 0)
(3 1.73314e-10 0)
(3 4.52431e-10 0)
(3 1.22398e-09 0)
(3 3.17884e-09 0)
(3 8.50468e-09 0)
(3 2.21126e-08 0)
(3 5.83477e-08 0)
(3 1.52031e-07 0)
(3 3.96547e-07 0)
(3 1.03215e-06 0)
(3 2.66934e-06 0)
(2.99999 6.956e-06 0)
(2.99999 1.77784e-05 0)
(2.99997 4.66064e-05 0)
(2.99991 0.000117631 0)
(2.99977 0.000309819 0)
(2.99941 0.000776676 0)
(2.99845 0.00205061 0)
(2.99607 0.00516296 0)
(3 3.62151e-14 0)
(3 2.29953e-13 0)
(3 8.54016e-13 0)
(3 2.62945e-12 0)
(3 7.69676e-12 0)
(3 2.06192e-11 0)
(3 5.7357e-11 0)
(3 1.51353e-10 0)
(3 4.10604e-10 0)
(3 1.08074e-09 0)
(3 2.90365e-09 0)
(3 7.59752e-09 0)
(3 2.03624e-08 0)
(3 5.26777e-08 0)
(3 1.41419e-07 0)
(3 3.61603e-07 0)
(3 9.69123e-07 0)
(3 2.45934e-06 0)
(3 6.56647e-06 0)
(2.99999 1.65473e-05 0)
(2.99997 4.41678e-05 0)
(2.99992 0.000110507 0)
(2.9998 0.000294767 0)
(2.99948 0.000736184 0)
(2.99865 0.00195842 0)
(3 4.71814e-16 0)
(3 5.73685e-14 0)
(3 2.84937e-13 0)
(3 8.32842e-13 0)
(3 2.39119e-12 0)
(3 6.54898e-12 0)
(3 1.75203e-11 0)
(3 4.81884e-11 0)
(3 1.26922e-10 0)
(3 3.48013e-10 0)
(3 9.10119e-10 0)
(3 2.48174e-09 0)
(3 6.46081e-09 0)
(3 1.74912e-08 0)
(3 4.54322e-08 0)
(3 1.21863e-07 0)
(3 3.15736e-07 0)
(3 8.39735e-07 0)
(3 2.1656e-06 0)
(3 5.72007e-06 0)
(2.99999 1.47446e-05 0)
(2.99998 3.85206e-05 0)
(2.99994 9.983e-05 0)
(2.99984 0.000257525 0)
(2.99956 0.000671346 0)
(3 3.42455e-14 0)
(3 8.21533e-14 0)
(3 1.78657e-13 0)
(3 3.75278e-13 0)
(3 8.27532e-13 0)
(3 2.09425e-12 0)
(3 5.19279e-12 0)
(3 1.43457e-11 0)
(3 3.71877e-11 0)
(3 1.03146e-10 0)
(3 2.69331e-10 0)
(3 7.39188e-10 0)
(3 1.9416e-09 0)
(3 5.24596e-09 0)
(3 1.38331e-08 0)
(3 3.70128e-08 0)
(3 9.72471e-08 0)
(3 2.58993e-07 0)
(3 6.75255e-07 0)
(3 1.79841e-06 0)
(3 4.62824e-06 0)
(2.99999 1.23777e-05 0)
(2.99998 3.14487e-05 0)
(2.99995 8.41757e-05 0)
(2.99987 0.000212375 0)
(3 4.12687e-14 0)
(3 8.11774e-14 0)
(3 1.15043e-13 0)
(3 1.59018e-13 0)
(3 2.73401e-13 0)
(3 5.94506e-13 0)
(3 1.47917e-12 0)
(3 3.80072e-12 0)
(3 1.05937e-11 0)
(3 2.75958e-11 0)
(3 7.64721e-11 0)
(3 2.03011e-10 0)
(3 5.47672e-10 0)
(3 1.47977e-09 0)
(3 3.89534e-09 0)
(3 1.06374e-08 0)
(3 2.75144e-08 0)
(3 7.53636e-08 0)
(3 1.93452e-07 0)
(3 5.25574e-07 0)
(3 1.34925e-06 0)
(3 3.63078e-06 0)
(2.99999 9.31283e-06 0)
(2.99999 2.48817e-05 0)
(2.99997 6.36065e-05 0)
(3 1.55973e-14 0)
(3 3.40951e-14 0)
(3 4.79976e-14 0)
(3 6.81102e-14 0)
(3 7.99979e-14 0)
(3 1.69536e-13 0)
(3 3.95439e-13 0)
(3 1.03085e-12 0)
(3 2.68893e-12 0)
(3 7.40234e-12 0)
(3 1.93279e-11 0)
(3 5.38842e-11 0)
(3 1.4195e-10 0)
(3 3.88126e-10 0)
(3 1.03515e-09 0)
(3 2.76499e-09 0)
(3 7.46998e-09 0)
(3 1.95664e-08 0)
(3 5.31796e-08 0)
(3 1.37557e-07 0)
(3 3.74472e-07 0)
(3 9.60148e-07 0)
(3 2.60762e-06 0)
(3 6.65362e-06 0)
(2.99999 1.79735e-05 0)
(3 -5.4578e-15 0)
(3 3.03121e-15 0)
(3 2.35407e-14 0)
(3 5.36464e-14 0)
(3 9.04262e-14 0)
(3 1.50112e-13 0)
(3 2.32814e-13 0)
(3 4.05677e-13 0)
(3 8.08264e-13 0)
(3 1.90534e-12 0)
(3 5.06268e-12 0)
(3 1.29449e-11 0)
(3 3.6025e-11 0)
(3 9.40015e-11 0)
(3 2.58861e-10 0)
(3 6.86344e-10 0)
(3 1.84278e-09 0)
(3 4.96079e-09 0)
(3 1.3038e-08 0)
(3 3.54084e-08 0)
(3 9.16169e-08 0)
(3 2.49884e-07 0)
(3 6.40095e-07 0)
(3 1.74198e-06 0)
(3 4.44382e-06 0)
(3 -3.85519e-14 0)
(3 -6.96174e-14 0)
(3 -8.84699e-14 0)
(3 -8.61977e-14 0)
(3 -7.02793e-14 0)
(3 -4.60572e-14 0)
(3 -2.29428e-14 0)
(3 -8.30427e-16 0)
(3 1.02336e-13 0)
(3 3.13964e-13 0)
(3 1.01402e-12 0)
(3 2.9848e-12 0)
(3 7.88548e-12 0)
(3 2.23607e-11 0)
(3 5.84363e-11 0)
(3 1.61718e-10 0)
(3 4.27067e-10 0)
(3 1.15178e-09 0)
(3 3.08548e-09 0)
(3 8.1304e-09 0)
(3 2.20192e-08 0)
(3 5.69762e-08 0)
(3 1.55249e-07 0)
(3 3.97241e-07 0)
(3 1.08038e-06 0)
(3 -2.29665e-14 0)
(3 -5.40056e-14 0)
(3 -7.80675e-14 0)
(3 -9.69085e-14 0)
(3 -1.11873e-13 0)
(3 -1.12192e-13 0)
(3 -1.03393e-13 0)
(3 -9.86943e-14 0)
(3 -8.10434e-14 0)
(3 -3.67428e-14 0)
(3 1.31575e-13 0)
(3 5.31619e-13 0)
(3 1.72485e-12 0)
(3 4.76654e-12 0)
(3 1.31905e-11 0)
(3 3.46677e-11 0)
(3 9.62755e-11 0)
(3 2.49594e-10 0)
(3 6.83177e-10 0)
(3 1.80034e-09 0)
(3 4.77354e-09 0)
(3 1.28466e-08 0)
(3 3.31783e-08 0)
(3 9.02615e-08 0)
(3 2.30063e-07 0)
(3 -5.14093e-16 0)
(3 -3.0489e-15 0)
(3 -1.7592e-14 0)
(3 -4.8955e-14 0)
(3 -7.44678e-14 0)
(3 -1.14553e-13 0)
(3 -1.48217e-13 0)
(3 -1.80743e-13 0)
(3 -2.08288e-13 0)
(3 -2.23516e-13 0)
(3 -2.09459e-13 0)
(3 -1.5167e-13 0)
(3 7.41561e-14 0)
(3 7.07064e-13 0)
(3 2.39558e-12 0)
(3 7.15002e-12 0)
(3 1.91883e-11 0)
(3 5.36695e-11 0)
(3 1.39027e-10 0)
(3 3.79683e-10 0)
(3 9.96752e-10 0)
(3 2.63187e-09 0)
(3 7.05929e-09 0)
(3 1.81268e-08 0)
(3 4.91594e-08 0)
(3 1.8087e-15 0)
(3 -2.17569e-14 0)
(3 -4.3799e-14 0)
(3 -5.9756e-14 0)
(3 -6.96461e-14 0)
(3 -9.8073e-14 0)
(3 -1.24574e-13 0)
(3 -1.34561e-13 0)
(3 -1.40178e-13 0)
(3 -1.2252e-13 0)
(3 -1.14308e-13 0)
(3 -9.79097e-14 0)
(3 -4.68518e-14 0)
(3 6.55461e-14 0)
(3 4.46045e-13 0)
(3 1.32279e-12 0)
(3 3.8672e-12 0)
(3 1.02507e-11 0)
(3 2.8477e-11 0)
(3 7.33304e-11 0)
(3 2.00469e-10 0)
(3 5.17521e-10 0)
(3 1.38417e-09 0)
(3 3.61857e-09 0)
(3 9.41714e-09 0)
(3 -1.33391e-14 0)
(3 -2.66746e-14 0)
(3 -4.09111e-14 0)
(3 -6.13679e-14 0)
(3 -8.45902e-14 0)
(3 -1.06814e-13 0)
(3 -1.19141e-13 0)
(3 -1.20999e-13 0)
(3 -1.14804e-13 0)
(3 -1.18609e-13 0)
(3 -1.16219e-13 0)
(3 -1.19934e-13 0)
(3 -1.08147e-13 0)
(3 -7.48158e-14 0)
(3 1.34459e-14 0)
(3 2.11674e-13 0)
(3 7.28859e-13 0)
(3 2.00793e-12 0)
(3 5.32966e-12 0)
(3 1.44536e-11 0)
(3 3.68488e-11 0)
(3 1.00553e-10 0)
(3 2.55527e-10 0)
(3 6.84591e-10 0)
(3 1.76747e-09 0)
(3 -1.15306e-14 0)
(3 -1.69573e-14 0)
(3 -4.06666e-14 0)
(3 -7.00438e-14 0)
(3 -9.98356e-14 0)
(3 -1.15855e-13 0)
(3 -1.14086e-13 0)
(3 -1.12336e-13 0)
(3 -1.21017e-13 0)
(3 -1.28946e-13 0)
(3 -1.27454e-13 0)
(3 -1.19647e-13 0)
(3 -1.0173e-13 0)
(3 -7.20721e-14 0)
(3 -3.06475e-14 0)
(3 6.65713e-15 0)
(3 1.13588e-13 0)
(3 3.2869e-13 0)
(3 9.33436e-13 0)
(3 2.50054e-12 0)
(3 6.78804e-12 0)
(3 1.75223e-11 0)
(3 4.74762e-11 0)
(3 1.19998e-10 0)
(3 3.20451e-10 0)
(3 -3.95854e-15 0)
(3 -9.38364e-15 0)
(3 -3.56569e-15 0)
(3 -3.02275e-14 0)
(3 -5.48101e-14 0)
(3 -6.0406e-14 0)
(3 -7.544e-14 0)
(3 -7.21421e-14 0)
(3 -8.32871e-14 0)
(3 -8.09827e-14 0)
(3 -7.87837e-14 0)
(3 -6.90008e-14 0)
(3 -6.15674e-14 0)
(3 -5.88287e-14 0)
(3 -5.69547e-14 0)
(3 -5.08914e-14 0)
(3 -2.2653e-14 0)
(3 2.65656e-14 0)
(3 1.30379e-13 0)
(3 3.66312e-13 0)
(3 1.16094e-12 0)
(3 3.0284e-12 0)
(3 8.04824e-12 0)
(3 2.14172e-11 0)
(3 5.39634e-11 0)
(3 3.61188e-15 0)
(3 1.07728e-14 0)
(3 1.22056e-14 0)
(3 7.62216e-15 0)
(3 5.17301e-15 0)
(3 -1.48004e-14 0)
(3 -5.46043e-14 0)
(3 -8.27812e-14 0)
(3 -1.08154e-13 0)
(3 -1.35747e-13 0)
(3 -1.79088e-13 0)
(3 -2.17273e-13 0)
(3 -2.56708e-13 0)
(3 -3.09582e-13 0)
(3 -3.38792e-13 0)
(3 -3.44476e-13 0)
(3 -3.43588e-13 0)
(3 -3.30703e-13 0)
(3 -2.95316e-13 0)
(3 -2.40196e-13 0)
(3 -1.0357e-13 0)
(3 2.29063e-13 0)
(3 1.10338e-12 0)
(3 3.2901e-12 0)
(3 9.00158e-12 0)
(3 -9.24328e-16 0)
(3 -2.91078e-15 0)
(3 -2.3695e-14 0)
(3 -1.76703e-14 0)
(3 -4.09285e-15 0)
(3 -6.5267e-15 0)
(3 -2.65103e-14 0)
(3 -5.2109e-14 0)
(3 -7.23481e-14 0)
(3 -8.41828e-14 0)
(3 -1.02246e-13 0)
(3 -1.0838e-13 0)
(3 -1.11842e-13 0)
(3 -1.0656e-13 0)
(3 -1.02104e-13 0)
(3 -1.17572e-13 0)
(3 -1.44024e-13 0)
(3 -1.64871e-13 0)
(3 -1.71305e-13 0)
(3 -1.47979e-13 0)
(3 -1.15987e-13 0)
(3 -5.01632e-14 0)
(3 1.06475e-13 0)
(3 4.61396e-13 0)
(3 1.37166e-12 0)
(3 -4.98021e-15 0)
(3 6.26367e-15 0)
(3 3.54067e-14 0)
(3 6.32473e-14 0)
(3 7.72953e-14 0)
(3 9.58787e-14 0)
(3 9.77122e-14 0)
(3 9.20366e-14 0)
(3 9.48788e-14 0)
(3 6.78792e-14 0)
(3 4.09404e-14 0)
(3 2.08064e-14 0)
(3 -1.35255e-14 0)
(3 -2.5167e-14 0)
(3 -3.57498e-14 0)
(3 -5.60395e-14 0)
(3 -7.11392e-14 0)
(3 -7.7188e-14 0)
(3 -8.41587e-14 0)
(3 -8.76485e-14 0)
(3 -8.52968e-14 0)
(3 -6.63873e-14 0)
(3 -2.47334e-14 0)
(3 5.54325e-14 0)
(3 1.77642e-13 0)
(3 -1.18539e-15 0)
(3 -6.24541e-15 0)
(3 3.48275e-16 0)
(3 1.93765e-14 0)
(3 3.61066e-14 0)
(3 5.16795e-14 0)
(3 7.36726e-14 0)
(3 8.08152e-14 0)
(3 9.96585e-14 0)
(3 9.62199e-14 0)
(3 9.33979e-14 0)
(3 9.33536e-14 0)
(3 7.7741e-14 0)
(3 5.38752e-14 0)
(3 3.874e-14 0)
(3 1.56062e-14 0)
(3 6.68455e-15 0)
(3 -2.08168e-14 0)
(3 -4.81449e-14 0)
(3 -7.9898e-14 0)
(3 -1.06771e-13 0)
(3 -1.13747e-13 0)
(3 -1.04357e-13 0)
(3 -8.93501e-14 0)
(3 -4.96324e-14 0)
(3 -3.39324e-16 0)
(3 -9.99535e-15 0)
(3 -3.3972e-14 0)
(3 -5.09593e-14 0)
(3 -5.97557e-14 0)
(3 -7.69626e-14 0)
(3 -7.88732e-14 0)
(3 -9.34017e-14 0)
(3 -1.06284e-13 0)
(3 -1.09837e-13 0)
(3 -9.66604e-14 0)
(3 -8.17233e-14 0)
(3 -5.90307e-14 0)
(3 -3.90647e-14 0)
(3 -3.29482e-14 0)
(3 -3.72988e-14 0)
(3 -4.00531e-14 0)
(3 -5.32354e-14 0)
(3 -7.03096e-14 0)
(3 -7.85121e-14 0)
(3 -9.50855e-14 0)
(3 -1.01401e-13 0)
(3 -1.04195e-13 0)
(3 -1.07937e-13 0)
(3 -7.73514e-14 0)
(1.39926 1.19505 0)
(1.86996 0.977766 0)
(2.10175 0.699355 0)
(2.16805 0.409863 0)
(2.14342 0.173922 0)
(2.08926 0.0104979 0)
(2.02917 -0.0484211 0)
(2.00096 -0.0352303 0)
(2.00646 -0.00597786 0)
(2.02114 0.0211377 0)
(2.04156 0.0394745 0)
(2.07018 0.044701 0)
(2.09746 0.0364512 0)
(2.118 0.0219901 0)
(2.13585 0.0109112 0)
(2.15347 0.00553681 0)
(2.17228 0.00448552 0)
(2.19281 0.00566486 0)
(2.21487 0.00737143 0)
(2.23792 0.00854951 0)
(2.26127 0.00878842 0)
(2.28434 0.00818202 0)
(2.30669 0.00708583 0)
(2.32806 0.00588343 0)
(2.34833 0.00486014 0)
(2.36746 0.00415739 0)
(2.38548 0.00379937 0)
(2.40243 0.00372584 0)
(2.41835 0.00383905 0)
(2.43334 0.00406158 0)
(2.4475 0.00427979 0)
(2.46072 0.00437201 0)
(2.473 0.0044101 0)
(2.4847 0.00434668 0)
(2.49571 0.00388552 0)
(2.5056 0.0031313 0)
(2.51452 0.00240241 0)
(2.52318 0.00171112 0)
(2.53194 0.000890456 0)
(2.54066 -0.000129927 0)
(2.54898 -0.00129768 0)
(2.55686 -0.0025058 0)
(2.5646 -0.00352164 0)
(2.57347 -0.00435339 0)
(2.58415 -0.00575869 0)
(2.59598 -0.00706478 0)
(2.60868 -0.00786982 0)
(2.6223 -0.0084818 0)
(2.63682 -0.0089525 0)
(2.65216 -0.00928258 0)
(2.66821 -0.00946673 0)
(2.68483 -0.00952558 0)
(2.70183 -0.00948846 0)
(2.71903 -0.00938082 0)
(2.73626 -0.00922251 0)
(2.75333 -0.00902782 0)
(2.77011 -0.00880537 0)
(2.78649 -0.00855758 0)
(2.80239 -0.00828182 0)
(2.81781 -0.00797319 0)
(2.83276 -0.00762812 0)
(2.84731 -0.00724766 0)
(2.86154 -0.00683676 0)
(2.8755 -0.00639837 0)
(2.88925 -0.00593592 0)
(2.9028 -0.00545814 0)
(2.91611 -0.00497456 0)
(2.9291 -0.00449381 0)
(2.94164 -0.00402387 0)
(2.95353 -0.00357071 0)
(2.96458 -0.00313674 0)
(2.97459 -0.00272349 0)
(2.98338 -0.00233614 0)
(2.99083 -0.00198125 0)
(2.99694 -0.00165948 0)
(3.00181 -0.0013667 0)
(3.00563 -0.00110445 0)
(3.0086 -0.000879678 0)
(3.01086 -0.000695282 0)
(3.01239 -0.000545032 0)
(3.01304 -0.000414543 0)
(3.01276 -0.000252993 0)
(3.01173 -0.000149414 0)
(3.0102 -0.000105936 0)
(3.00847 -8.46479e-05 0)
(3.00677 -6.77315e-05 0)
(3.00524 -4.76814e-05 0)
(3.00393 -2.44164e-05 0)
(3.00287 -1.16894e-05 0)
(3.00203 -1.63975e-05 0)
(3.00139 -1.92142e-05 0)
(3.00094 -1.64426e-05 0)
(3.00062 -1.28302e-05 0)
(3.0004 -9.61476e-06 0)
(3.00025 -7.08215e-06 0)
(3.00015 -5.18151e-06 0)
(3.00009 -3.77689e-06 0)
(3.00005 -2.76257e-06 0)
(3.00003 -1.93917e-06 0)
(3.00001 -1.15651e-06 0)
(1.48877 1.09827 0)
(1.85365 0.797955 0)
(2.06804 0.466525 0)
(2.18374 0.1705 0)
(2.25651 -0.0420676 0)
(2.31227 -0.164609 0)
(2.35008 -0.195953 0)
(2.36725 -0.163459 0)
(2.37359 -0.115726 0)
(2.37617 -0.072039 0)
(2.37817 -0.0367705 0)
(2.38096 -0.01742 0)
(2.38754 -0.0125279 0)
(2.40084 -0.0160698 0)
(2.41842 -0.0229334 0)
(2.43605 -0.0297272 0)
(2.45256 -0.032737 0)
(2.46821 -0.0323094 0)
(2.48345 -0.0298914 0)
(2.49862 -0.0271875 0)
(2.51388 -0.0250487 0)
(2.52917 -0.023703 0)
(2.54427 -0.0230132 0)
(2.55895 -0.0227217 0)
(2.57295 -0.0225691 0)
(2.58616 -0.02237 0)
(2.59853 -0.0220187 0)
(2.61009 -0.0214835 0)
(2.62091 -0.020779 0)
(2.63111 -0.0199219 0)
(2.64075 -0.018995 0)
(2.64988 -0.018107 0)
(2.65853 -0.0171828 0)
(2.66669 -0.0162704 0)
(2.67433 -0.0156842 0)
(2.68144 -0.0153154 0)
(2.688 -0.0149287 0)
(2.69415 -0.0146293 0)
(2.70006 -0.0144671 0)
(2.70568 -0.0144851 0)
(2.71076 -0.0147118 0)
(2.71528 -0.0150774 0)
(2.71933 -0.0154097 0)
(2.72319 -0.0157728 0)
(2.72801 -0.0167714 0)
(2.73431 -0.0179097 0)
(2.74125 -0.0188707 0)
(2.74861 -0.0197769 0)
(2.7567 -0.0206261 0)
(2.7656 -0.0213795 0)
(2.7753 -0.0219987 0)
(2.7857 -0.022468 0)
(2.79666 -0.0227846 0)
(2.80804 -0.022951 0)
(2.81967 -0.0229723 0)
(2.83139 -0.0228544 0)
(2.84303 -0.0226019 0)
(2.85448 -0.0222159 0)
(2.86566 -0.0216949 0)
(2.87654 -0.0210385 0)
(2.88714 -0.0202514 0)
(2.8975 -0.0193453 0)
(2.90771 -0.0183378 0)
(2.91783 -0.0172494 0)
(2.9279 -0.0161011 0)
(2.93795 -0.0149108 0)
(2.94792 -0.0136921 0)
(2.95773 -0.012457 0)
(2.96727 -0.01122 0)
(2.97635 -0.00999769 0)
(2.98477 -0.0088048 0)
(2.99234 -0.00765521 0)
(2.99888 -0.00656596 0)
(3.00427 -0.00555525 0)
(3.0085 -0.00463218 0)
(3.01168 -0.00379516 0)
(3.01397 -0.00304312 0)