/*--------------------------------*- C++ -*----------------------------------*\
  =========                 |
  \\      /  F ield         | OpenFOAM: The Open Source CFD Toolbox
   \\    /   O peration     | Website:  https://openfoam.org
    \\  /    A nd           | Version:  13
     \\/     M anipulation  |
\*---------------------------------------------------------------------------*/
FoamFile
{
    format      ascii;
    class       volScalarField;
    location    "5";
    object      p;
}
// * * * * * * * * * * * * * * * * * * * * * * * * * * * * * * * * * * * * * //

dimensions      [1 -1 -2 0 0 0 0];

internalField   nonuniform List<scalar> 
5250
(
1.00001
1.00003
1.00008
1.0002
1.00055
1.00126
1.00337
1.00765
1.02049
1.04761
1.1242
1.31298
1.85326
3.42213
8.01382
11.6855
11.2844
11.041
11.1246
11.3535
11.5817
11.72
11.8253
11.9078
11.9703
1.00001
1.00003
1.00008
1.0002
1.00053
1.00128
1.00319
1.00792
1.01927
1.04841
1.12004
1.31017
1.83543
3.37987
7.89857
11.699
11.2841
11.0312
11.1158
11.3456
11.5737
11.7123
11.8192
11.9031
11.9671
1
1.00003
1.00008
1.00021
1.00049
1.00126
1.00308
1.00755
1.01895
1.04611
1.11678
1.29781
1.80512
3.28326
7.64137
11.7263
11.2799
11.0013
11.0844
11.3121
11.5381
11.675
11.7814
11.8647
11.9291
1.00001
1.00002
1.00008
1.00018
1.0005
1.00113
1.00304
1.00697
1.01826
1.0433
1.11102
1.28078
1.75731
3.14159
7.24436
11.7663
11.2744
10.9519
11.0304
11.2516
11.4747
11.6079
11.7114
11.7931
11.8588
1
1.00002
1.00007
1.00017
1.00046
1.00106
1.00283
1.00642
1.01717
1.0398
1.10368
1.25879
1.69772
2.95948
6.72212
11.8035
11.2677
10.8861
10.9566
11.1664
11.3858
11.5135
11.612
11.6908
11.759
1
1.00002
1.00006
1.00016
1.00042
1.00098
1.00258
1.0059
1.01565
1.03642
1.09439
1.23479
1.6285
2.75171
6.09713
11.7892
11.249
10.8047
10.8631
11.0537
11.2663
11.3849
11.4739
11.5461
11.6162
1
1.00002
1.00006
1.00015
1.00036
1.00095
1.00217
1.00578
1.01321
1.0348
1.08256
1.21455
1.5582
2.55486
5.49371
11.6378
11.1761
10.702
10.7473
10.9105
11.1094
11.213
11.285
11.3416
11.4082
1
1.00002
1.00005
1.00013
1.00035
1.0008
1.00213
1.00491
1.01278
1.03026
1.07709
1.1921
1.50611
2.39802
5.04642
11.199
10.9841
10.5864
10.6118
10.732
10.9068
10.9868
11.0292
11.0512
11.0939
1
1.00002
1.00005
1.00013
1.00029
1.00079
1.00178
1.00478
1.01087
1.02871
1.06784
1.17586
1.45297
2.25248
4.60533
10.4963
10.6979
10.512
10.4662
10.527
10.6553
10.6971
10.6877
10.6369
10.5869
1
1.00001
1.00004
1.00011
1.00028
1.00065
1.00171
1.00404
1.01018
1.02491
1.06185
1.15558
1.40338
2.10545
4.16242
9.61856
10.538
10.4119
10.2864
10.3078
10.3613
10.3447
10.2554
10.0358
9.69658
1
1.00001
1.00004
1.0001
1.00024
1.0006
1.00145
1.00367
1.00872
1.02235
1.05368
1.13718
1.35053
1.95615
3.71453
8.58193
10.4265
10.3133
10.0994
10.0677
10.0437
9.95051
9.69354
9.0936
7.53854
1
1.00001
1.00003
1.00008
1.00021
1.0005
1.00129
1.00306
1.00766
1.01884
1.04641
1.11643
1.29764
1.80103
3.25567
7.38749
10.3435
10.2155
9.93188
9.82025
9.73175
9.53784
9.12335
8.29362
6.65139
1
1.00001
1.00003
1.00007
1.00018
1.00042
1.00105
1.00261
1.00624
1.01587
1.03806
1.09657
1.24284
1.64647
2.79352
6.08615
10.236
10.1099
9.78995
9.57912
9.42411
9.14712
8.63094
7.77219
6.43449
1
1.00001
1.00002
1.00006
1.00014
1.00034
1.00088
1.00201
1.00532
1.01211
1.0319
1.07506
1.19444
1.49914
2.36548
4.80132
9.92502
9.90926
9.67764
9.35791
9.12947
8.80601
8.27175
7.47587
6.40621
1
1.00001
1.00002
1.00005
1.00011
1.00029
1.00067
1.00177
1.00401
1.01064
1.02447
1.06365
1.15449
1.4054
2.09278
4.07658
9.03638
9.63374
9.48021
9.1535
8.8675
8.51992
8.00816
7.29513
6.40349
1
1
1.00001
1.00004
1.00009
1.00023
1.00056
1.00138
1.00331
1.00844
1.01993
1.05104
1.12426
1.3228
1.86105
3.41236
7.56225
9.35664
9.26326
8.99761
8.65008
8.28393
7.80252
7.16614
6.39794
1
1
1.00001
1.00003
1.00007
1.00018
1.00043
1.00111
1.00255
1.00673
1.01542
1.04035
1.09614
1.24975
1.65311
2.80758
6.00449
9.16843
9.12017
8.8932
8.48238
8.09174
7.63545
7.06339
6.38898
1
1
1.00001
1.00002
1.00005
1.00014
1.00033
1.00084
1.00193
1.00507
1.01154
1.03028
1.07101
1.18312
1.46585
2.25404
4.38678
8.75815
8.98207
8.7974
8.38275
7.94414
7.49894
6.97857
6.37903
1
1
1.00001
1.00002
1.00004
1.0001
1.00026
1.00062
1.00151
1.00379
1.00893
1.02284
1.05434
1.13842
1.34997
1.94004
3.58143
7.69915
8.73018
8.60941
8.28454
7.82328
7.38476
6.90623
6.36788
1
1
1.00001
1.00001
1.00003
1.00007
1.0002
1.00045
1.00118
1.00272
1.00699
1.01657
1.04159
1.10213
1.25998
1.68464
2.87222
6.05796
8.45634
8.41382
8.19674
7.74554
7.29578
6.84471
6.35615
1
1
1
1.00001
1.00002
1.00005
1.00014
1.00032
1.00086
1.00193
1.00513
1.01159
1.03033
1.07115
1.18257
1.46335
2.23291
4.26268
8.00334
8.27521
8.11572
7.7263
7.24151
6.79845
6.34724
1
1
1
1.00001
1.00002
1.00004
1.0001
1.00025
1.0006
1.00144
1.00361
1.00848
1.02167
1.05124
1.13032
1.32653
1.86692
3.33107
6.92181
8.0512
7.9603
7.68583
7.21635
6.77019
6.34299
1
1
1
1
1.00001
1.00003
1.00007
1.00018
1.00042
1.00104
1.00254
1.00609
1.0153
1.03649
1.09192
1.22836
1.59771
2.5991
5.23741
7.72224
7.74979
7.60177
7.23066
6.77114
6.34544
1
1
1
1
1.00001
1.00002
1.00005
1.00012
1.00028
1.00072
1.00172
1.0042
1.01034
1.02477
1.06174
1.15107
1.38572
2.00154
3.60483
7.02664
7.62003
7.51714
7.22982
6.78532
6.35624
1
1
1
1
1.00001
1.00001
1.00003
1.00009
1.00019
1.00051
1.00115
1.00297
1.00687
1.0174
1.04161
1.10378
1.25933
1.67409
2.78697
5.58657
7.36902
7.35563
7.20625
6.84008
6.38459
1
1
1
1
1
1.00001
1.00002
1.00006
1.00013
1.00033
1.00076
1.00198
1.00448
1.01168
1.02668
1.06865
1.16415
1.42316
2.08533
3.76073
6.83975
7.25156
7.15241
6.88644
6.44187
1
1
1
1
1
1.00001
1.00002
1.00004
1.00009
1.00021
1.00054
1.00123
1.00317
1.00736
1.01843
1.04436
1.10963
1.27438
1.70756
2.85115
5.63402
7.02942
7.01845
6.87615
6.54201
1
1
1
1
1
1
1.00001
1.00002
1.00006
1.00014
1.00035
1.0008
1.00207
1.00468
1.01219
1.02778
1.07154
1.17067
1.4401
2.12441
3.84512
6.52869
6.90697
6.82522
6.59452
1
1
1
1
1
1
1.00001
1.00001
1.00004
1.00009
1.00023
1.00051
1.00133
1.00304
1.00771
1.01812
1.04496
1.1091
1.27356
1.6987
2.79678
5.39772
6.67758
6.68889
6.57914
1
1
1
1
1
1
1
1.00001
1.00002
1.00006
1.00014
1.00033
1.00083
1.00189
1.0049
1.01102
1.02872
1.06598
1.1685
1.41552
2.06296
3.63661
6.15662
6.57876
6.52436
1
1
1
1
1
1
1
1.00001
1.00002
1.00003
1.00009
1.0002
1.00052
1.00117
1.00306
1.00686
1.01785
1.04086
1.10404
1.25209
1.64656
2.63739
4.99389
6.33518
6.40689
1
1
1
1
1
1
1
1
1.00001
1.00002
1.00005
1.00013
1.0003
1.00076
1.00172
1.00445
1.00997
1.02584
1.05908
1.14974
1.36484
1.91649
3.21581
5.77189
6.29345
1
1
1
1
1
1
1
1
1.00001
1.00001
1.00003
1.00007
1.0002
1.00044
1.00113
1.00255
1.0065
1.01507
1.03736
1.08988
1.22278
1.56046
2.41685
4.49124
5.99494
1
1
1
1
1
1
1
1
1
1.00001
1.00002
1.00005
1.00011
1.00027
1.00065
1.00153
1.00385
1.00874
1.0224
1.05131
1.12968
1.31363
1.78663
2.91023
5.28679
1
1
1
1
1
1
1
1
1
1
1.00001
1.00003
1.00007
1.00015
1.0004
1.0009
1.0023
1.00525
1.01313
1.03089
1.07587
1.18449
1.46075
2.14976
3.80067
1
1
1
1
1
1
1
1
1
1
1.00001
1.00002
1.00004
1.0001
1.00022
1.00056
1.00125
1.00322
1.00727
1.01842
1.0427
1.10613
1.25724
1.64067
2.56751
1
1
1
1
1
1
1
1
1
1
1
1.00001
1.00002
1.00006
1.00012
1.00032
1.00071
1.00184
1.00408
1.01047
1.0237
1.05949
1.13994
1.34743
1.84137
1
1
1
1
1
1
1
1
1
1
1
1.00001
1.00001
1.00003
1.00008
1.00018
1.00042
1.00103
1.00237
1.006
1.01346
1.03454
1.07904
1.19938
1.48315
1
1
1
1
1
1
1
1
1
1
1
1
1.00001
1.00002
1.00004
1.0001
1.00025
1.00055
1.00138
1.00322
1.00776
1.01871
1.04433
1.10807
1.2616
1
1
1
1
1
1
1
1
1
1
1
1
1
1.00001
1.00002
1.00005
1.00014
1.0003
1.00078
1.00173
1.00438
1.00994
1.02461
1.05763
1.14025
1
1
1
1
1
1
1
1
1
1
1
1
1
1.00001
1.00001
1.00003
1.00008
1.00017
1.00043
1.00096
1.00245
1.00553
1.01383
1.03201
1.07832
1
1
1
1
1
1
1
1
1
1
1
1
1
1
1.00001
1.00002
1.00004
1.0001
1.00023
1.00058
1.00129
1.00328
1.0073
1.01864
1.042
1
1
1
1
1
1
1
1
1
1
1
1
1
1
1
1.00001
1.00003
1.00006
1.00014
1.00032
1.0008
1.00183
1.00443
1.01056
1.02485
1
1
1
1
1
1
1
1
1
1
1
1
1
1
1
1.00001
1.00002
1.00004
1.0001
1.00021
1.00055
1.00123
1.00319
1.00713
1.01841
1
1
1
1
1
1
1
1
1
1
1
1
1
1
1
1.00001
1.00001
1.00003
1.00007
1.00018
1.00042
1.00109
1.00247
1.00646
1.01471
1
1
1
1
1
1
1
1
1
1
1
1
1
1
1
1
1.00001
1.00003
1.00007
1.00016
1.00039
1.001
1.00229
1.00605
1.01384
1
1
1
1
1
1
1
1
1
1
1
1
1
1
1
1
1.00001
1.00003
1.00006
1.00016
1.00038
1.00097
1.00224
1.00589
1.01358
1
1
1
1
1
1
1
1
1
1
1
1
1
1
1
1
1.00001
1.00002
1.00006
1.00015
1.00039
1.00089
1.00238
1.0054
1.01446
1
1
1
1
1
1
1
1
1
1
1
1
1
1
1
1
1.00001
1.00003
1.00006
1.00016
1.00037
1.00092
1.00231
1.00552
1.01412
1
1
1
1
1
1
1
1
1
1
1
1
1
1
1
1
1.00001
1.00002
1.00006
1.00015
1.00037
1.00094
1.00222
1.00577
1.01344
3.04807
1.58043
1.20596
1.2968
1.66107
2.51408
3.00828
3.07491
3.12893
3.13907
3.13914
3.12765
3.11564
3.1069
3.09586
3.07637
3.04739
3.01269
2.97627
2.93917
2.90206
2.86301
2.81864
2.78563
2.77108
2.76698
2.76937
2.79877
2.8616
2.95987
3.08503
3.22607
3.37371
3.52077
3.65928
3.78517
3.89747
3.99697
4.08627
4.16362
4.22881
4.28344
4.32926
4.36935
4.39926
4.41942
4.43183
4.43778
4.43741
4.43361
4.42346
4.40621
4.38492
4.3609
4.33327
4.303
4.26968
4.23436
4.19662
4.15744
4.11645
4.07444
4.03111
3.98715
3.94229
3.8971
3.85138
3.80562
3.75968
3.71397
3.66843
3.62343
3.57899
3.53546
3.49294
3.45175
3.41213
3.37441
3.33891
3.30597
3.276
3.24941
3.22666
3.20824
3.19472
3.18742
3.18808
3.19004
3.19425
3.20281
3.2188
3.23908
3.2615
3.28422
3.3058
3.32444
3.3389
3.34882
3.35463
3.36247
3.75422
2.40324
1.86384
1.86831
1.98228
2.33872
2.96466
3.12144
3.1405
3.14091
3.13747
3.12988
3.12742
3.12207
3.10796
3.08484
3.05045
3.00984
2.97133
2.93331
2.89561
2.85844
2.82083
2.78597
2.76867
2.76312
2.76388
2.78941
2.84945
2.94658
3.07176
3.21268
3.35939
3.50611
3.64465
3.77008
3.88215
3.98048
4.07276
4.15145
4.21691
4.27258
4.31939
4.35947
4.38953
4.41054
4.42346
4.42981
4.42966
4.42686
4.4182
4.40049
4.37879
4.35493
4.3279
4.29801
4.26511
4.22998
4.19258
4.15356
4.11284
4.07096
4.02787
3.98401
3.93935
3.89427
3.84875
3.8031
3.75735
3.71177
3.66643
3.62159
3.57735
3.534
3.4917
3.45073
3.41137
3.37393
3.33873
3.30614
3.27655
3.25038
3.22805
3.21004
3.19685
3.18965
3.19029
3.19238
3.19666
3.2049
3.21994
3.23881
3.25971
3.28091
3.30108
3.31857
3.3322
3.34146
3.34714
3.35619
4.58504
3.3136
2.55084
2.1299
2.1081
2.23183
2.60332
3.04248
3.13769
3.14692
3.14444
3.13833
3.13191
3.11999
3.10256
3.078
3.04597
3.00972
2.97433
2.93497
2.89508
2.85576
2.81746
2.78288
2.76033
2.75141
2.7529
2.77615
2.83125
2.92424
3.04759
3.18814
3.33299
3.4824
3.62388
3.75125
3.86533
3.96646
4.05815
4.13699
4.20343
4.25982
4.30709
4.34651
4.37687
4.39859
4.41216
4.41891
4.41889
4.41684
4.40977
4.39399
4.37097
4.34661
4.32002
4.29068
4.25834
4.22357
4.18655
4.1478
4.10739
4.06574
4.02293
3.97927
3.93487
3.89
3.84473
3.79932
3.75386
3.70855
3.66354
3.61902
3.57517
3.53221
3.49037
3.4499
3.41113
3.37434
3.33988
3.30811
3.27943
3.25423
3.23292
3.21588
3.20352
3.19673
3.19733
3.19935
3.20344
3.21101
3.22414
3.24012
3.25759
3.27522
3.29193
3.30639
3.31776
3.32554
3.33069
3.34068
5.03813
3.88282
3.04983
2.50878
2.27523
2.30519
2.45908
2.82123
3.10138
3.16868
3.1679
3.1613
3.14674
3.12742
3.10547
3.07851
3.04596
3.00859
2.9696
2.9296
2.88939
2.84929
2.8119
2.7814
2.76095
2.74791
2.74783
2.76585
2.81366
2.90682
3.02952
3.16552
3.3112
3.45858
3.59851
3.72564
3.83962
3.94151
4.03263
4.11234
4.18023
4.23784
4.28594
4.32567
4.35662
4.37921
4.39366
4.40108
4.40154
4.40006
4.39462
4.3817
4.35845
4.33349
4.30705
4.27832
4.24676
4.21267
4.17627
4.13802
4.09813
4.05691
4.01455
3.9713
3.92733
3.88285
3.83803
3.79305
3.74807
3.70326
3.6588
3.61487
3.57168
3.52943
3.48838
3.44884
3.41109
3.37546
3.34229
3.31198
3.28488
3.26137
3.24178
3.22636
3.21542
3.20935
3.20986
3.21159
3.21503
3.22138
3.23138
3.24285
3.25508
3.26704
3.27801
3.28728
3.29466
3.29981
3.30415
3.31326
5.31153
4.2946
3.47951
2.89829
2.52226
2.42773
2.47434
2.62841
2.95971
3.14672
3.187
3.18365
3.17139
3.14568
3.11562
3.08417
3.05029
3.0122
2.97208
2.93163
2.89121
2.85185
2.81678
2.78834
2.76849
2.75876
2.76157
2.78079
2.83098
2.91739
3.02743
3.1544
3.2873
3.42737
3.56368
3.69014
3.8046
3.90761
3.99952
4.08051
4.15014
4.20934
4.2587
4.29925
4.33105
4.35459
4.37007
4.37838
4.37957
4.37847
4.3743
4.36402
4.34304
4.31766
4.29094
4.26257
4.23179
4.19855
4.16297
4.12544
4.08621
4.04561
4.00385
3.96117
3.91778
3.87388
3.82967
3.78532
3.74101
3.69693
3.65325
3.61018
3.56793
3.52675
3.48688
3.44873
3.41253
3.37863
3.34741
3.31924
3.29445
3.27334
3.25614
3.24291
3.23377
3.22846
3.22878
3.22979
3.23184
3.2359
3.24135
3.24705
3.25257
3.25705
3.26043
3.26277
3.26449
3.26574
3.26835
3.27453
5.49541
4.60916
3.84999
3.25303
2.82472
2.56482
2.5455
2.59683
2.74223
3.03947
3.16896
3.19121
3.18651
3.17081
3.13774
3.09869
3.06135
3.02192
2.98051
2.93993
2.90001
2.86325
2.8331
2.81076
2.79842
2.79952
2.80947
2.83987
2.9011
2.97311
3.059
3.15985
3.27166
3.3886
3.51448
3.63921
3.75582
3.86183
3.95608
4.03894
4.11043
4.17144
4.22248
4.26449
4.29767
4.32258
4.33944
4.349
4.35131
4.35052
4.34736
4.33935
4.32241
4.29758
4.27075
4.24259
4.21251
4.18021
4.14565
4.10906
4.07074
4.03096
3.99001
3.94811
3.90551
3.86241
3.81902
3.77553
3.73214
3.68904
3.64644
3.60456
3.56363
3.52392
3.48582
3.44954
3.41547
3.38399
3.35545
3.33017
3.30843
3.29039
3.2761
3.26542
3.25819
3.25374
3.25272
3.25282
3.25305
3.25296
3.25259
3.25166
3.24957
3.2454
3.24022
3.23476
3.22981
3.22598
3.22597
3.22761
5.62289
4.85037
4.15192
3.5692
3.11259
2.78774
2.62192
2.62906
2.68363
2.8246
3.08406
3.17737
3.18837
3.18257
3.16431
3.12593
3.08142
3.03835
2.99629
2.95616
2.9179
2.88588
2.86374
2.85286
2.85438
2.86516
2.89691
2.9632
3.02938
3.08185
3.13452
3.19564
3.26761
3.34655
3.44417
3.56035
3.68181
3.79659
3.89863
3.98682
4.06173
4.12508
4.17803
4.22178
4.25669
4.28337
4.30203
4.31333
4.31735
4.31686
4.31465
4.30877
4.29596
4.2733
4.24713
4.21926
4.18975
4.15834
4.12488
4.08944
4.05224
4.01353
3.97361
3.93273
3.89114
3.84907
3.80674
3.76436
3.72217
3.68036
3.63918
3.59887
3.55969
3.52198
3.48613
3.45241
3.42121
3.39289
3.36779
3.34613
3.32805
3.31354
3.30239
3.29424
3.28858
3.28464
3.28195
3.27958
3.27639
3.27141
3.26449
3.25579
3.24464
3.23206
3.21878
3.20566
3.19366
3.18393
3.17834
3.17936
5.71337
5.03408
4.39713
3.84006
3.37818
3.02194
2.77448
2.68056
2.69528
2.75595
2.90188
3.10998
3.17849
3.18183
3.17474
3.15383
3.11056
3.06169
3.01654
2.97636
2.94148
2.91695
2.90758
2.91022
2.92373
2.96223
3.04798
3.15643
3.22091
3.24771
3.26347
3.27548
3.29209
3.32862
3.38056
3.45634
3.57363
3.69841
3.81533
3.91634
4.00014
4.0689
4.12516
4.17104
4.20777
4.23631
4.25702
4.27048
4.27697
4.2769
4.27568
4.27178
4.26268
4.24415
4.21945
4.19226
4.1634
4.13287
4.10053
4.06636
4.03047
3.99307
3.95443
3.91481
3.87448
3.83369
3.7927
3.75173
3.71104
3.67088
3.63151
3.59322
3.5563
3.52128
3.48832
3.45785
3.43027
3.40587
3.38489
3.36742
3.35338
3.34249
3.3343
3.32817
3.32335
3.31891
3.31397
3.30769
3.29942
3.28833
3.27469
3.25738
3.23824
3.21786
3.19718
3.17704
3.15836
3.14266
3.13022
3.13059
5.78046
5.17544
4.59552
4.06941
3.61543
3.24232
2.95904
2.77428
2.72818
2.74897
2.81411
2.96027
3.12466
3.17383
3.17302
3.16431
3.14113
3.09423
3.04448
3.00255
2.97122
2.95984
2.96267
2.97641
3.01551
3.10437
3.28238
3.42033
3.4658
3.46274
3.44642
3.40496
3.34848
3.34263
3.35548
3.38963
3.45779
3.56719
3.69303
3.8114
3.91245
3.99447
4.05972
4.11077
4.15076
4.18162
4.20456
4.22035
4.22945
4.23164
4.23098
4.22851
4.22235
4.20925
4.1874
4.16171
4.13385
4.10429
4.0731
4.04027
4.00584
3.96997
3.93286
3.89479
3.856
3.8168
3.77744
3.73822
3.69941
3.66131
3.62423
3.58847
3.5546
3.52278
3.49348
3.46706
3.44385
3.42405
3.40773
3.39471
3.38465
3.377
3.37107
3.36601
3.36085
3.35455
3.34613
3.33487
3.3204
3.30269
3.28122
3.25655
3.23032
3.20325
3.17623
3.15003
3.12542
3.10422
3.08532
3.08236
5.82893
5.28612
4.75611
4.26339
3.82414
3.44841
3.14293
2.9167
2.78033
2.76667
2.78922
2.85555
2.99865
3.13023
3.16501
3.16317
3.15337
3.12874
3.08025
3.03647
3.01141
3.01301
3.0241
3.05886
3.14332
3.32395
3.59777
3.74471
3.75144
3.73261
3.67539
3.55556
3.44005
3.37302
3.36264
3.37251
3.40131
3.45949
3.55204
3.67058
3.78643
3.88758
3.97007
4.03416
4.08254
4.11854
4.145
4.16355
4.17533
4.18078
4.18066
4.17945
4.17579
4.1674
4.15035
4.12715
4.1009
4.07262
4.04269
4.01127
3.97841
3.94424
3.90891
3.87265
3.83573
3.79844
3.7611
3.72402
3.68753
3.652
3.61776
3.58532
3.55504
3.52729
3.50247
3.48088
3.46272
3.44799
3.43647
3.42769
3.42104
3.41573
3.41094
3.40557
3.39857
3.38885
3.3756
3.35842
3.33746
3.31224
3.28316
3.25255
3.22077
3.18841
3.15627
3.12506
3.09545
3.06931
3.0454
3.03712
5.86854
5.37526
4.88851
4.42756
4.00713
3.63596
3.32119
3.06969
2.88707
2.7959
2.79857
2.82178
2.88759
3.02456
3.13019
3.15642
3.15389
3.14358
3.11898
3.07835
3.06623
3.07254
3.09826
3.16777
3.32528
3.65187
3.99142
4.09745
4.08395
4.03082
3.90739
3.71917
3.5627
3.45542
3.39642
3.38366
3.39045
3.41288
3.45836
3.53067
3.63465
3.74324
3.84361
3.92741
3.99251
4.04064
4.0751
4.09899
4.11463
4.1235
4.12593
4.12541
4.1234
4.11828
4.10733
4.08799
4.06425
4.0378
4.00947
3.97965
3.94852
3.91622
3.88289
3.84873
3.81401
3.77903
3.74413
3.70968
3.67607
3.64371
3.61305
3.58469
3.55886
3.53602
3.51646
3.50034
3.48761
3.47796
3.47084
3.46551
3.46119
3.45691
3.45185
3.44453
3.43394
3.4193
3.40008
3.37654
3.34807
3.31567
3.28168
3.24624
3.20997
3.17341
3.13723
3.10204
3.06841
3.03812
3.01024
2.99667
5.90043
5.44783
4.9987
4.56787
4.16752
3.80583
3.48951
3.22306
3.01566
2.86447
2.81383
2.82028
2.84722
2.91354
3.04631
3.1287
3.14983
3.14838
3.14175
3.12626
3.1282
3.14378
3.1952
3.32308
3.59926
4.11679
4.42937
4.45505
4.42309
4.32607
4.12149
3.89441
3.71087
3.57509
3.48195
3.4265
3.40433
3.40735
3.42137
3.45201
3.50393
3.58755
3.6871
3.78419
3.86871
3.93616
3.98636
4.02169
4.04512
4.05931
4.06629
4.0669
4.0661
4.06341
4.05701
4.04373
4.0234
3.99949
3.97329
3.94545
3.9163
3.88609
3.855
3.82326
3.79111
3.75888
3.72694
3.69572
3.66566
3.6372
3.61115
3.58764
3.56715
3.55002
3.53633
3.52599
3.51859
3.51344
3.50971
3.50656
3.50314
3.49845
3.4912
3.48005
3.46418
3.44347
3.41753
3.38638
3.35158
3.31505
3.27691
3.23763
3.19784
3.158
3.1187
3.08046
3.04379
3.01025
2.97932
2.96118
5.92746
5.50875
5.0923
4.68958
4.3091
3.95961
3.64602
3.37323
3.14714
2.97211
2.85448
2.82623
2.83482
2.86526
2.93598
3.0585
3.12812
3.1474
3.15714
3.16416
3.18213
3.22821
3.33774
3.57825
4.07573
4.64267
4.8359
4.8185
4.74666
4.57873
4.31192
4.07118
3.87547
3.72171
3.60368
3.51666
3.45789
3.42261
3.41796
3.42297
3.43915
3.47479
3.53732
3.62276
3.71334
3.79726
3.86762
3.9216
3.95968
3.98433
3.99854
4.00451
4.00442
4.00331
4
3.99252
3.97742
3.95712
3.93382
3.9085
3.88176
3.85399
3.82549
3.79651
3.76737
3.73841
3.71007
3.68281
3.65709
3.63376
3.61302
3.59533
3.58103
3.57022
3.56255
3.55779
3.55493
3.55303
3.55126
3.54883
3.54487
3.53781
3.52629
3.50938
3.48699
3.45868
3.42546
3.38905
3.35069
3.31048
3.26899
3.22672
3.18421
3.14192
3.10034
3.05992
3.0211
2.9852
2.95212
2.93026
5.95602
5.56433
5.17668
4.79778
4.43648
4.09904
3.79127
3.51651
3.27985
3.08549
2.93817
2.84918
2.83751
2.84798
2.88084
2.95493
3.06977
3.13331
3.16607
3.19358
3.24274
3.34506
3.55992
4.00513
4.7214
5.15319
5.1866
5.1469
5.02701
4.77515
4.4919
4.24958
4.04971
3.88481
3.74873
3.63772
3.54959
3.48328
3.43908
3.41682
3.41735
3.42259
3.44142
3.48312
3.5531
3.63405
3.71662
3.78975
3.84801
3.8901
3.91752
3.93277
3.93869
3.93854
3.93723
3.93356
3.92548
3.91018
3.89063
3.8685
3.84476
3.81998
3.79455
3.76886
3.7433
3.71827
3.69432
3.67183
3.65176
3.63426
3.62
3.6089
3.60153
3.59703
3.59481
3.59485
3.59476
3.59431
3.59308
3.5902
3.58417
3.57208
3.55407
3.52963
3.49919
3.46424
3.42674
3.38685
3.34506
3.30184
3.25775
3.21326
3.16886
3.12492
3.08187
3.04008
2.99993
2.96248
2.92803
2.9033
5.99158
5.61955
5.25407
4.89595
4.55155
4.22634
3.92516
3.65183
3.40966
3.20211
3.0357
2.90659
2.84748
2.84866
2.86064
2.89815
2.97746
3.0914
3.16416
3.23163
3.32778
3.52199
3.91534
4.7022
5.35831
5.54268
5.51936
5.43092
5.22884
4.93207
4.66037
4.42771
4.22865
4.05647
3.90684
3.77722
3.66649
3.57427
3.50052
3.44604
3.41293
3.40126
3.3992
3.40557
3.42801
3.47687
3.54997
3.62856
3.70307
3.76576
3.81276
3.84395
3.8614
3.86917
3.86923
3.86827
3.86509
3.85781
3.84323
3.82521
3.80518
3.784
3.76229
3.74063
3.71943
3.69925
3.68062
3.6642
3.65077
3.64018
3.6333
3.62901
3.62921
3.63004
3.6319
3.63553
3.63581
3.63509
3.63287
3.62756
3.61665
3.59707
3.57046
3.53837
3.50254
3.46388
3.42266
3.37945
3.33483
3.28929
3.24336
3.19742
3.15189
3.10705
3.06326
3.02079
2.98001
2.94173
2.90658
2.87979
6.04174
5.67697
5.32686
4.98608
4.65592
4.34238
4.04849
3.77837
3.53408
3.31931
3.13714
2.9937
2.88316
2.85363
2.85888
2.87819
2.9258
3.02402
3.15354
3.27932
3.45845
3.81888
4.55048
5.45852
5.86335
5.85752
5.80106
5.65189
5.36018
5.07567
4.82461
4.60357
4.40657
4.22927
4.06936
3.9255
3.79737
3.68487
3.58827
3.5079
3.44539
3.40065
3.38076
3.36523
3.36655
3.37716
3.40521
3.46295
3.53463
3.60896
3.67471
3.72642
3.76264
3.78493
3.79569
3.7986
3.79805
3.79575
3.79005
3.77836
3.76345
3.74653
3.72923
3.71243
3.69651
3.68245
3.67018
3.66162
3.65544
3.653
3.65362
3.65572
3.66051
3.66818
3.67416
3.67627
3.67556
3.67337
3.66801
3.6569
3.6362
3.60838
3.57561
3.53924
3.49957
3.45719
3.41281
3.36698
3.32031
3.27322
3.22619
3.17949
3.13349
3.08839
3.04447
3.00194
2.96111
2.92261
2.88735
2.85927
6.1096
5.73692
5.39543
5.06782
4.75175
4.44848
4.16269
3.89646
3.65296
3.43388
3.24276
3.08334
2.95717
2.87608
2.86935
2.88117
2.9166
2.99538
3.15358
3.34828
3.66792
4.31262
5.39946
6.07125
6.17094
6.13227
6.01453
5.76889
5.48064
5.21939
4.98636
4.77453
4.57916
4.39813
4.23051
4.07593
3.9345
3.80621
3.69192
3.59167
3.5063
3.43667
3.38408
3.35222
3.32982
3.31864
3.32254
3.33864
3.37527
3.43897
3.50753
3.57455
3.63189
3.67513
3.70354
3.71958
3.72717
3.72831
3.7276
3.72498
3.71889
3.70775
3.69654
3.68556
3.67627
3.6694
3.66502
3.66546
3.66704
3.67073
3.67814
3.68971
3.70072
3.70951
3.71353
3.71287
3.71063
3.70504
3.69324
3.67174
3.64311
3.61009
3.57308
3.53258
3.4894
3.44412
3.39746
3.34993
3.30206
3.2542
3.20676
3.15994
3.11405
3.0692
3.02565
2.98354
2.94317
2.90498
2.87008
2.84147
6.17927
5.80012
5.46147
5.14366
4.83895
4.54632
4.26864
4.00735
3.76599
3.54534
3.34863
3.17784
3.04119
2.93022
2.89665
2.90447
2.93507
3.01351
3.17856
3.47479
4.02145
5.12361
6.13186
6.43716
6.41451
6.32878
6.13671
5.8613
5.60023
5.36297
5.14396
4.93848
4.74411
4.56019
4.38663
4.22406
4.07262
3.93279
3.80483
3.68918
3.58629
3.49677
3.42156
3.36174
3.3202
3.29082
3.26825
3.26804
3.27483
3.29538
3.33935
3.40282
3.47073
3.53241
3.58219
3.6184
3.64202
3.65581
3.66271
3.6664
3.66646
3.66597
3.66447
3.66125
3.66145
3.66258
3.66563
3.67229
3.6843
3.69843
3.7129
3.72871
3.74022
3.74603
3.74543
3.74314
3.73761
3.72572
3.70304
3.67463
3.64114
3.60331
3.56215
3.51829
3.47249
3.42531
3.37734
3.329
3.28073
3.2328
3.18556
3.13915
3.09383
3.04968
3.00692
2.96564
2.92609
2.88869
2.85457
2.82622
6.30064
5.88635
5.53291
5.21793
4.9218
4.63838
4.36818
4.11217
3.87353
3.65346
3.45404
3.27723
3.13079
3.01374
2.95758
2.96479
2.99752
3.08885
3.29261
3.72525
4.61686
5.94782
6.58626
6.61184
6.56849
6.44938
6.20814
5.95684
5.72216
5.50227
5.29312
5.09237
4.89917
4.71369
4.53645
4.36815
4.2093
4.06056
3.92205
3.7946
3.67816
3.57335
3.48054
3.40067
3.33466
3.28474
3.24845
3.2206
3.20455
3.20719
3.21913
3.24713
3.30302
3.36551
3.42943
3.4867
3.53242
3.56559
3.58798
3.60319
3.61395
3.62313
3.63118
3.63926
3.64836
3.66092
3.67509
3.69168
3.71051
3.73041
3.74933
3.76536
3.77302
3.77253
3.77029
3.76486
3.75275
3.73011
3.70167
3.66774
3.62948
3.58774
3.54346
3.49728
3.4499
3.40172
3.35328
3.30485
3.25684
3.20942
3.16289
3.11737
3.07304
3.02998
2.98841
2.94837
2.91019
2.87408
2.84119
2.81376
6.34443
5.97624
5.61204
5.29383
5.00222
4.7262
4.46243
4.21302
3.97685
3.75856
3.55862
3.37951
3.2306
3.10954
3.07194
3.0849
3.13383
3.26522
3.56085
4.18509
5.43858
6.42893
6.72858
6.71027
6.64519
6.50459
6.28642
6.06283
5.84654
5.63845
5.43696
5.24043
5.0487
4.86214
4.68194
4.50892
4.34413
4.18808
4.04155
3.90444
3.77733
3.6603
3.55383
3.45835
3.37456
3.30364
3.24597
3.20537
3.1698
3.14499
3.1433
3.14886
3.16614
3.20366
3.26347
3.33011
3.394
3.44934
3.49396
3.52867
3.55611
3.57921
3.60035
3.6212
3.64271
3.66582
3.69044
3.71581
3.74058
3.76311
3.78297
3.79327
3.79335
3.79144
3.78598
3.77373
3.75187
3.72315
3.68906
3.65057
3.60873
3.56432
3.51814
3.47073
3.42266
3.37427
3.32602
3.2781
3.23086
3.18443
3.13909
3.09491
3.05213
3.01071
2.97081
2.93243
2.89584
2.86136
2.82995
2.80394
6.32419
6.10117
5.7151
5.37873
5.08325
4.81118
4.55268
4.30827
4.07665
3.86099
3.66332
3.48639
3.34326
3.23601
3.23818
3.26597
3.35696
3.57851
4.05118
5.00417
5.94262
6.49758
6.69939
6.69113
6.65325
6.56282
6.38348
6.17759
5.9727
5.7729
5.57685
5.38313
5.1919
5.00411
4.82123
4.6444
4.47483
4.31304
4.15972
4.01503
3.8793
3.75268
3.63549
3.5279
3.43052
3.34382
3.26888
3.20594
3.15891
3.11922
3.09108
3.07671
3.0795
3.09115
3.11833
3.17289
3.2379
3.30756
3.37459
3.4344
3.48594
3.53023
3.5695
3.606
3.64114
3.67598
3.7095
3.74117
3.76878
3.79182
3.80463
3.8059
3.80422
3.79928
3.78845
3.76738
3.73874
3.70449
3.66603
3.62434
3.58026
3.53441
3.48742
3.43969
3.39171
3.34376
3.29624
3.24934
3.20344
3.15865
3.11514
3.07284
3.03188
2.99223
2.95405
2.91742
2.88261
2.85011
2.82053
2.79673
6.26421
6.12904
5.8333
5.47707
5.16912
4.89608
4.64087
4.40102
4.17389
3.96289
3.77067
3.60515
3.47544
3.43375
3.45222
3.52291
3.70695
4.10401
4.90474
5.63456
6.12259
6.43106
6.59575
6.61955
6.60594
6.56325
6.46552
6.2939
6.10351
5.90873
5.71355
5.51934
5.32695
5.13766
4.95253
4.77286
4.59951
4.43326
4.27453
4.12377
3.98108
3.84683
3.72106
3.6041
3.49617
3.39769
3.30925
3.23147
3.1655
3.11271
3.07203
3.03936
3.01969
3.02047
3.02802
3.0481
3.09002
3.15671
3.2356
3.31786
3.39674
3.4683
3.532
3.58876
3.63991
3.68561
3.72699
3.76158
3.78837
3.80583
3.81035
3.80908
3.80482
3.79507
3.7754
3.74693
3.71291
3.6748
3.63369
3.59029
3.54529
3.49908
3.45218
3.40488
3.35764
3.31078
3.26476
3.21973
3.17582
3.13299
3.09137
3.05089
3.01173
2.9739
2.93763
2.90311
2.87053
2.84067
2.81355
2.79303
6.16566
6.1016
5.92575
5.57964
5.26021
4.98206
4.72813
4.49205
4.27083
4.06734
3.88873
3.74421
3.67464
3.68769
3.7487
3.9154
4.28233
5.02075
5.64534
5.97989
6.15869
6.30032
6.42142
6.50217
6.52082
6.51094
6.47696
6.39614
6.23744
6.04879
5.84992
5.65074
5.45453
5.26258
5.07531
4.89337
4.71727
4.54757
4.3847
4.22901
4.08079
3.94029
3.80771
3.68325
3.56711
3.4596
3.36105
3.27203
3.1931
3.12537
3.06949
3.02756
2.99496
2.97424
2.97431
2.97956
2.99608
3.03229
3.09801
3.18715
3.28476
3.3828
3.47506
3.55762
3.62874
3.68752
3.7343
3.76932
3.79477
3.80498
3.80406
3.80033
3.79132
3.77267
3.74543
3.71262
3.67575
3.63585
3.59379
3.55005
3.50519
3.45944
3.41331
3.36719
3.32167
3.27685
3.23297
3.18998
3.14804
3.1071
3.06734
3.02877
2.9916
2.95593
2.922
2.89013
2.86042
2.83402
2.81009
2.79388
6.00337
6.00587
5.92106
5.71046
5.37195
5.07607
4.81769
4.58438
4.37127
4.18261
4.02951
3.9457
3.95653
4.01507
4.18006
4.54479
5.27586
5.84839
6.08776
6.15334
6.16327
6.18603
6.23731
6.33292
6.41485
6.45249
6.44548
6.41517
6.33943
6.18598
5.98725
5.78119
5.57845
5.38172
5.19117
5.00661
4.82795
4.65524
4.48896
4.3292
4.17653
4.03101
3.89298
3.76267
3.64014
3.5258
3.41974
3.32243
3.23432
3.15601
3.08847
3.0325
2.98962
2.96076
2.94646
2.94833
2.95561
2.97374
3.01162
3.07906
3.16725
3.2748
3.38677
3.49315
3.58663
3.66262
3.72009
3.75841
3.78274
3.78352
3.7811
3.77427
3.75947
3.73353
3.70235
3.66745
3.62969
3.58966
3.54796
3.50487
3.46086
3.41629
3.37194
3.328
3.28477
3.24219
3.20046
3.15952
3.11961
3.08071
3.04307
3.00673
2.97196
2.93892
2.90789
2.87935
2.85329
2.83134
2.8113
2.79992
5.58545
5.904
5.87532
5.75361
5.49058
5.18005
4.91337
4.68321
4.48448
4.32437
4.2362
4.24755
4.31035
4.48764
4.87827
5.62952
6.17024
6.33143
6.32104
6.27428
6.17147
6.11769
6.12887
6.16879
6.256
6.35803
6.3953
6.38672
6.35354
6.2728
6.11061
5.90953
5.70254
5.49973
5.30375
5.11492
4.93266
4.75668
4.58704
4.42381
4.26734
4.11781
3.97544
3.84058
3.71318
3.59378
3.48226
3.37917
3.28476
3.19949
3.12416
3.05953
3.0065
2.9672
2.94056
2.94077
2.94448
2.95569
2.98085
3.02816
3.09631
3.18129
3.28676
3.39697
3.50172
3.59192
3.66266
3.71022
3.7395
3.73988
3.73699
3.72902
3.71175
3.68281
3.64979
3.61415
3.57662
3.53748
3.49697
3.45526
3.41311
3.37094
3.32912
3.28766
3.24681
3.20652
3.16704
3.12835
3.09072
3.05418
3.01901
2.98533
2.95344
2.92363
2.89621
2.87183
2.85056
2.8336
2.81812
2.81343
4.64192
5.67072
5.78352
5.73259
5.58924
5.29869
5.02409
4.80021
4.62731
4.53998
4.55432
4.62802
4.83117
5.27522
6.05776
6.57331
6.66849
6.63917
6.53981
6.33494
6.1603
6.07168
6.07311
6.08882
6.13263
6.22334
6.30739
6.32115
6.30977
6.27245
6.18464
6.01784
5.82007
5.61609
5.41511
5.2207
5.03331
4.85291
4.67935
4.51254
4.35268
4.19979
4.05413
3.91588
3.78508
3.66219
3.54708
3.44034
3.34204
3.25274
3.17301
3.10356
3.04517
2.99962
2.96663
2.95454
2.95648
2.96342
2.97983
3.01394
3.06991
3.13287
3.21014
3.2983
3.39091
3.47931
3.55602
3.6144
3.654
3.66838
3.6669
3.66125
3.64822
3.62209
3.58981
3.55467
3.51804
3.48027
3.4415
3.40229
3.36301
3.3237
3.28466
3.24586
3.20757
3.16979
3.13282
3.09668
3.06168
3.0279
2.99566
2.96518
2.93684
2.91104
2.88822
2.86929
2.85338
2.84207
2.83435
2.83477
2.98305
5.11414
5.65913
5.66493
5.60117
5.44022
5.1706
4.95581
4.85594
4.87426
4.96339
5.20363
5.72364
6.55277
7.05275
7.08814
7.03937
6.89662
6.60921
6.35903
6.18352
6.08117
6.05346
6.05688
6.07165
6.108
6.17961
6.22741
6.22515
6.21048
6.16995
6.0817
5.91665
5.7238
5.52314
5.32422
5.13105
4.94507
4.76679
4.59595
4.43284
4.27707
4.129
3.98841
3.85554
3.73058
3.61362
3.50511
3.40517
3.31443
3.23333
3.1625
3.10312
3.05556
3.02143
3.00005
3.00046
3.0038
3.0127
3.03161
3.06677
3.11383
3.16029
3.21677
3.28061
3.34847
3.4151
3.47527
3.52401
3.55666
3.56783
3.56653
3.56119
3.54818
3.52216
3.49072
3.45576
3.41962
3.38332
3.347
3.31074
3.27452
3.23845
3.20259
3.16714
3.13222
3.09807
3.06487
3.03288
3.00236
2.97365
2.94709
2.92323
2.9025
2.88588
2.87274
2.86336
2.8604
2.86115
2.86454
2.19576
3.85987
5.30953