/*--------------------------------*- C++ -*----------------------------------*\
  =========                 |
  \\      /  F ield         | OpenFOAM: The Open Source CFD Toolbox
   \\    /   O peration     | Website:  https://openfoam.org
    \\  /    A nd           | Version:  13
     \\/     M anipulation  |
\*---------------------------------------------------------------------------*/
FoamFile
{
    format      ascii;
    class       surfaceScalarField;
    location    "5";
    object      phi;
}
// * * * * * * * * * * * * * * * * * * * * * * * * * * * * * * * * * * * * * //

dimensions      [1 0 -1 0 0 0 0];

internalField   nonuniform List<scalar> 
10325
(
0.0840003
1.6674e-09
0.0840004
3.84017e-09
0.084
2.77972e-08
0.0840009
3.50203e-08
0.0839976
2.10508e-07
0.084006
2.06614e-07
0.0839821
1.43929e-06
0.0840364
1.15645e-06
0.0839104
8.61545e-06
0.0841046
7.89697e-06
0.083801
4.28598e-05
0.0839719
8.60504e-05
0.0834551
0.00031229
0.0824441
0.0011171
0.0767037
0.00571538
0.0700482
0.00665447
0.0637459
0.00630154
0.0572456
0.00649942
0.0504276
0.00681629
0.0432078
0.00721989
0.035494
0.00771316
0.0272921
0.00820145
0.0186516
0.00864246
0.00956642
0.0090844
0.00956528
0.0840003
1.71687e-09
0.0840004
1.08634e-08
0.0839999
3.90421e-08
0.0840011
1.10796e-07
0.0839986
2.64786e-07
0.0840017
8.35703e-07
0.0839952
1.4216e-06
0.0839982
5.63196e-06
0.0839841
8.23328e-06
0.0839867
3.25611e-05
0.0839179
6.19442e-05
0.0838678
0.000205249
0.0835254
0.000606493
0.0823991
0.00225788
0.0768116
0.0112941
0.0700064
0.01346
0.0637855
0.012523
0.0573797
0.0129046
0.050608
0.0135863
0.0433146
0.0145135
0.03551
0.015517
0.0272232
0.0164878
0.018464
0.0174036
0.00931085
0.0182368
0.018875
0.0840003
2.25169e-09
0.0840002
1.75869e-08
0.0840007
4.88916e-08
0.0839994
1.69206e-07
0.0840017
3.81368e-07
0.0839969
1.0297e-06
0.0840013
2.66991e-06
0.0839925
5.8525e-06
0.083993
1.73302e-05
0.0839703
3.66994e-05
0.0839593
0.000108244
0.0838302
0.000282558
0.0835615
0.000912095
0.082535
0.00327523
0.0775693
0.0162557
0.0706553
0.0203765
0.0644105
0.0187673
0.0580511
0.0192632
0.051316
0.0203202
0.0440082
0.0218197
0.0361406
0.0233857
0.0277432
0.024884
0.0188355
0.0263134
0.00948498
0.0275873
0.0283583
0.0840003
2.90618e-09
0.0840005
2.05321e-08
0.0839997
6.54205e-08
0.0840018
2.02551e-07
0.0839968
4.84704e-07
0.0840083
1.37698e-06
0.0839819
2.99272e-06
0.0840363
8.70671e-06
0.0839233
1.84998e-05
0.0840938
5.33425e-05
0.0838183
0.000127324
0.0840019
0.000369768
0.0835702
0.00113167
0.0828655
0.00408325
0.0791275
0.0199686
0.0721514
0.0273513
0.0657713
0.0251475
0.0593843
0.0256496
0.0526749
0.0270287
0.0453497
0.0291457
0.0374209
0.031312
0.0289027
0.0334021
0.0197335
0.0354852
0.0100004
0.0373187
0.0383559
0.0840003
3.47563e-09
0.0840004
2.16963e-08
0.084
7.66605e-08
0.084001
2.09238e-07
0.0839981
5.73243e-07
0.0840054
1.40384e-06
0.0839853
3.64382e-06
0.0840337
8.93107e-06
0.0839236
2.26761e-05
0.0841107
5.72319e-05
0.0838257
0.000148314
0.0840625
0.000410782
0.0837003
0.00126768
0.0834026
0.0045009
0.0818438
0.021497
0.0748142
0.0343789
0.0680558
0.0319056
0.0615253
0.0321797
0.0547642
0.0337867
0.0474416
0.0364692
0.0394239
0.0393296
0.0307001
0.0421252
0.0211958
0.0449902
0.010862
0.0476528
0.0492171
0.0840003
4.67786e-09
0.0840004
1.79136e-08
0.0840002
9.16372e-08
0.0840005
1.77232e-07
0.0839991
6.73022e-07
0.0840036
1.21414e-06
0.0839892
4.20337e-06
0.0840257
7.78147e-06
0.0839462
2.51385e-05
0.0840879
5.2142e-05
0.0838957
0.000153139
0.0841113
0.000392555
0.0839923
0.0012225
0.0843673
0.00422183
0.0866443
0.0191912
0.079473
0.0415486
0.071702
0.0396757
0.0648023
0.039079
0.0578719
0.0407161
0.0504794
0.0438608
0.0423247
0.0474834
0.0333239
0.0511262
0.0233393
0.0549768
0.0121909
0.0587983
0.0614063
0.0840003
2.56614e-09
0.0840002
2.42558e-08
0.0840006
6.10182e-08
0.0839996
2.33711e-07
0.0840023
4.60573e-07
0.0839951
1.48157e-06
0.0840137
3.05974e-06
0.0839716
8.72811e-06
0.0840694
1.97294e-05
0.083896
5.18387e-05
0.0841805
0.000128402
0.0839333
0.000346878
0.0843794
0.00101922
0.0850464
0.00341835
0.0894999
0.0147722
0.0839755
0.0470692
0.0754871
0.0481637
0.0684673
0.0460981
0.0616578
0.0475229
0.0543078
0.0512128
0.0460686
0.0557217
0.0368409
0.0603504
0.0263694
0.0654486
0.0142176
0.0709501
0.0756234
0.0840003
3.81147e-09
0.0840005
1.67571e-08
0.0839999
7.70039e-08
0.0840014
1.65217e-07
0.083998
5.56802e-07
0.0840063
1.16114e-06
0.0839887
3.33601e-06
0.0840292
7.51945e-06
0.0839483
1.95855e-05
0.0840995
4.77953e-05
0.0838834
0.00012108
0.0841744
0.000323165
0.0840203
0.000936063
0.084456
0.00310658
0.0861203
0.0130781
0.0831984
0.0499899
0.0764731
0.0548876
0.0709921
0.0515783
0.064822
0.053691
0.0580889
0.0579444
0.0502326
0.063578
0.041126
0.0694545
0.0304551
0.0761228
0.0173743
0.0840323
0.0929968
0.0840003
2.91218e-09
0.0840002
2.11581e-08
0.0840006
6.35815e-08
0.0839996
2.07213e-07
0.0840023
4.78647e-07
0.0839952
1.33296e-06
0.0840132
3.0964e-06
0.0839725
7.89739e-06
0.0840636
1.95072e-05
0.0838928
4.72187e-05
0.0841524
0.000122585
0.0838533
0.000317961
0.0841224
0.000923911
0.084068
0.00301505
0.0850094
0.0121771
0.0819899
0.0530032
0.0791855
0.0576907
0.0733267
0.057436
0.0673501
0.0596663
0.0615351
0.0637585
0.0546153
0.0704965
0.0463807
0.0776882
0.0364404
0.0860631
0.0225963
0.0978711
0.11559
0.0840003
3.33431e-09
0.0840004
1.90483e-08
0.084
7.12379e-08
0.084001
1.8648e-07
0.0839988
5.28862e-07
0.0840039
1.24671e-06
0.0839932
3.31355e-06
0.0840129
7.81283e-06
0.0839757
1.9969e-05
0.0840353
4.88783e-05
0.0839368
0.00012438
0.0840561
0.000326362
0.0839211
0.000928485
0.0840048
0.00300772
0.0845484
0.011605
0.0830664
0.0544925
0.0789733
0.0617835
0.0747184
0.0616907
0.0702426
0.064141
0.0651909
0.0688087
0.059767
0.0759169
0.0533493
0.0841019
0.0444392
0.0949706
0.0313663
0.110945
0.146941
0.0840003
3.05089e-09
0.0840003
2.14789e-08
0.0840003
6.7773e-08
0.0840004
2.09028e-07
0.0840001
5.04852e-07
0.0840001
1.37665e-06
0.0840005
3.20847e-06
0.0839952
8.44636e-06
0.0840071
2.00785e-05
0.0839764
5.14687e-05
0.0840179
0.000127747
0.0839595
0.000336828
0.0839824
0.000942947
0.0839435
0.00300776
0.0843872
0.0111869
0.0849671
0.053907
0.0807494
0.0660001
0.0765173
0.0659219
0.0730986
0.0675568
0.0693542
0.0725516
0.0657229
0.0795476
0.0614168
0.088408
0.0572732
0.0991114
0.0569259
0.11128
0.115108
0.0887639
0.0840003
3.23863e-09
0.0840004
2.03601e-08
0.0840001
7.04893e-08
0.0840009
1.9804e-07
0.0839992
5.26883e-07
0.0840029
1.31297e-06
0.0839954
3.35838e-06
0.0840084
8.20991e-06
0.0839846
2.0658e-05
0.0840227
5.13019e-05
0.0839575
0.000129782
0.0840499
0.000336907
0.083948
0.000935161
0.0841163
0.00291993
0.0847427
0.0105302
0.0890427
0.0496086
0.0844712
0.0705714
0.0797451
0.0706452
0.0762627
0.0710427
0.0734044
0.0754068
0.0708144
0.0821326
0.0688231
0.0903892
0.0684612
0.0994676
0.0729282
0.106815
0.104895
0.0831263
0.0840003
2.7123e-09
0.0840004
2.01469e-08
0.0840002
6.26865e-08
0.0840007
1.96243e-07
0.0839998
4.66703e-07
0.0840013
1.32065e-06
0.0839998
2.90954e-06
0.0839994
8.30459e-06
0.0840054
1.79337e-05
0.0839942
5.10386e-05
0.0840241
0.00011558
0.0840316
0.000320484
0.0841159
0.000842922
0.0844497
0.0025966
0.0859634
0.00902249
0.0964359
0.0391248
0.0906897
0.0763167
0.0847093
0.0766266
0.0807967
0.0749488
0.0781264
0.0780768
0.0763799
0.0838783
0.0760632
0.0907203
0.0783079
0.0972014
0.0837395
0.101375
0.098643
0.0899775
0.0840003
2.88063e-09
0.0840003
1.46383e-08
0.0840003
5.96144e-08
0.0840004
1.43181e-07
0.0840001
4.40609e-07
0.0840016
9.53704e-07
0.0839974
2.76951e-06
0.0840123
5.89048e-06
0.0839814
1.66665e-05
0.0840703
3.63874e-05
0.0839425
9.9679e-05
0.0842495
0.000234975
0.0841903
0.000646858
0.0851738
0.00183473
0.0880017
0.00605593
0.102608
0.0245638
0.0976436
0.0812719
0.0929637
0.0813066
0.0869182
0.0809943
0.0836968
0.081297
0.082418
0.0851507
0.0828809
0.0902432
0.0853902
0.0946965
0.0901483
0.0965987
0.0936612
0.0951369
0.0840003
2.08315e-09
0.0840003
1.42191e-08
0.0840004
4.55609e-08
0.0840002
1.38149e-07
0.0840008
3.39174e-07
0.0839992
8.97812e-07
0.0840044
2.14817e-06
0.0839926
5.4327e-06
0.0840269
1.3191e-05
0.083961
3.25346e-05
0.0841208
8.09887e-05
0.0839245
0.000201219
0.0843324
0.000528859
0.0844029
0.00148427
0.0858982
0.00476695
0.0919448
0.0184132
0.0990168
0.0742136
0.0957392
0.0845841
0.0914973
0.0852411
0.0887504
0.0840337
0.0877659
0.0861384
0.0884979
0.0894922
0.0908032
0.0923937
0.0946207
0.0927574
0.0895636
0.0987199
0.0840003
1.9203e-09
0.0840003
1.16979e-08
0.0840003
4.16439e-08
0.0840005
1.14955e-07
0.0840001
3.07234e-07
0.0840008
7.67554e-07
0.0840004
1.91588e-06
0.084
4.75387e-06
0.0840069
1.1622e-05
0.0839904
2.91258e-05
0.0840443
7.11376e-05
0.0839878
0.000181051
0.0841499
0.000464295
0.084249
0.00129294
0.085079
0.00402575
0.088711
0.014719
0.0987792
0.0641513
0.0975116
0.0858529
0.0952381
0.08751
0.0929014
0.0863718
0.0921625
0.0868648
0.0929883
0.0886805
0.0950398
0.09031
0.0980309
0.0897739
0.0863647
0.101211
0.0840003
1.62702e-09
0.0840003
1.03728e-08
0.0840003
3.53561e-08
0.0840003
1.01337e-07
0.0840005
2.63118e-07
0.084
6.73368e-07
0.0840021
1.66102e-06
0.0839964
4.1637e-06
0.0840149
1.02108e-05
0.0839765
2.54906e-05
0.0840762
6.31678e-05
0.0839317
0.000158896
0.0842262
0.000408116
0.0841499
0.00111178
0.0850328
0.0033591
0.0878811
0.0117451
0.103584
0.0484688
0.102022
0.0874169
0.0995851
0.0899448
0.0968986
0.0890684
0.0961342
0.0876089
0.0967721
0.0880567
0.0984457
0.0886121
0.100735
0.0874613
0.0839946
0.10312
0.0840003
1.233e-09
0.0840003
8.34803e-09
0.0840003
2.72718e-08
0.0840004
8.13904e-08
0.0840004
2.0251e-07
0.0840004
5.33907e-07
0.0840015
1.27611e-06
0.0839989
3.23813e-06
0.0840122
7.78283e-06
0.0839887
1.94169e-05
0.0840739
4.7229e-05
0.083978
0.000117751
0.0843065
0.000294991
0.0843869
0.000776568
0.0857655
0.00221167
0.0901889
0.00716936
0.110861
0.0278436
0.109092
0.0891782
0.106604
0.0924307
0.102988
0.0926848
0.100737
0.0898327
0.10052
0.0883054
0.101533
0.0875809
0.103119
0.0858488
0.0823424
0.104779
0.0840003
9.73962e-10
0.0840003
6.61018e-09
0.0840003
2.17756e-08
0.0840004
6.44151e-08
0.0840002
1.61521e-07
0.0840009
4.24504e-07
0.0840002
1.00502e-06
0.0840017
2.60074e-06
0.0840033
6.06247e-06
0.0840016
1.56253e-05
0.0840276
3.67035e-05
0.0840133
9.39922e-05
0.0841442
0.000228904
0.0842429
0.000599713
0.0848809
0.00164845
0.0867859
0.0051884
0.0953047
0.0193721
0.1097
0.0747714
0.109086
0.093041
0.106971
0.0948003
0.10461
0.092158
0.103915
0.0890388
0.104355
0.0871231
0.105314
0.0848596
0.0812962
0.106377
0.0840003
8.09161e-10
0.0840003
5.21681e-09
0.0840003
1.77693e-08
0.0840004
5.09219e-08
0.0840001
1.31747e-07
0.084001
3.38182e-07
0.0839994
8.23501e-07
0.0840041
2.08958e-06
0.0839962
4.98353e-06
0.0840191
1.27444e-05
0.083984
3.02237e-05
0.0840779
7.78874e-05
0.0839893
0.000188721
0.0842737
0.000494332
0.0843888
0.00132682
0.0857064
0.00403509
0.0908013
0.0141973
0.110021
0.0555631
0.111429
0.0916322
0.110553
0.0956763
0.108261
0.094429
0.107058
0.0902756
0.106944
0.0872216
0.107392
0.0843741
0.0807551
0.107955
0.0840003
6.41488e-10
0.0840003
3.81384e-09
0.0840003
1.39124e-08
0.0840004
3.71606e-08
0.0840003
1.02803e-07
0.0840007
2.463e-07
0.0839998
6.37265e-07
0.0840034
1.52277e-06
0.0839969
3.79072e-06
0.0840202
9.27878e-06
0.0839831
2.25519e-05
0.0841051
5.63291e-05
0.0839672
0.000136519
0.0844083
0.000349005
0.0844704
0.000903794
0.0862443
0.00258507
0.0918911
0.00835591
0.116229
0.0312634
0.117083
0.0907799
0.116152
0.0966067
0.113601
0.0969753
0.11084
0.0930532
0.109771
0.0882719
0.109613
0.0845255
0.0806851
0.109676
0.0840003
4.78245e-10
0.0840003
2.89407e-09
0.0840003
1.02995e-08
0.0840003
2.82547e-08
0.0840005
7.57108e-08
0.0840002
1.86606e-07
0.084001
4.72211e-07
0.0840004
1.13477e-06
0.0840022
2.85711e-06
0.0840047
6.7929e-06
0.0840042
1.70739e-05
0.0840367
4.09156e-05
0.0840274
0.000102726
0.0842004
0.000252417
0.0843537
0.000652391
0.0852569
0.0017813
0.0879913
0.00552263
0.099194
0.0201198
0.117341
0.0726185
0.118354
0.0955897
0.116838
0.0984885
0.114009
0.0958852
0.112735
0.0895342
0.111961
0.085312
0.0810428
0.111578
0.0840003
3.50677e-10
0.0840003
2.22253e-09
0.0840003
7.61041e-09
0.0840003
2.16719e-08
0.0840004
5.65728e-08
0.0840002
1.42006e-07
0.0840009
3.54939e-07
0.0840001
8.65867e-07
0.0840027
2.15216e-06
0.0840015
5.198e-06
0.0840069
1.30024e-05
0.0840173
3.13158e-05
0.0840311
7.87123e-05
0.0841078
0.000193307
0.0842494
0.000494655
0.0847162
0.00131585
0.0863413
0.00389601
0.0930713
0.0133947
0.117095
0.0485918
0.119952
0.0927244
0.120654
0.0977845
0.119122
0.0974115
0.115812
0.0928517
0.114502
0.086631
0.0819043
0.113612
0.0840003
2.55335e-10
0.0840003
1.59242e-09
0.0840003
5.51314e-09
0.0840003
1.55597e-08
0.0840004
4.06415e-08
0.0840003
1.01937e-07
0.0840008
2.54134e-07
0.0840001
6.15624e-07
0.0840026
1.5325e-06
0.0840008
3.66074e-06
0.0840091
9.16048e-06
0.0840127
2.17505e-05
0.0840402
5.47602e-05
0.084096
0.000131522
0.0842725
0.000333615
0.0846964
0.000851525
0.0862675
0.00237883
0.0921807
0.00745993
0.114144
0.0266214
0.124214
0.0826535
0.124136
0.0978583
0.122292
0.099251
0.11886
0.0962899
0.117252
0.088233
0.0833074
0.115831
0.0840003
1.76198e-10
0.0840003
1.17114e-09
0.0840003
3.85006e-09
0.0840003
1.13974e-08
0.0840004
2.8616e-08
0.0840003
7.40323e-08
0.0840007
1.80172e-07
0.0840001
4.45498e-07
0.0840024
1.0932e-06
0.0839993
2.63824e-06
0.0840117
6.58391e-06
0.0839968
1.56572e-05
0.0840549
3.95794e-05
0.0840107
9.41406e-05
0.0842405
0.00024086
0.0842935
0.000597616
0.0852787
0.00162675
0.0877024
0.00484645
0.0973484
0.0170707
0.121829
0.0581334
0.125161
0.0945208
0.125867
0.0985416
0.1244
0.097757
0.12049
0.0921404
0.0855076
0.118284
0.0840003
1.18694e-10
0.0840003
8.06229e-10
0.0840003
2.65622e-09
0.0840003
7.87647e-09
0.0840003
1.95995e-08
0.0840004
5.1612e-08
0.0840004
1.21127e-07
0.0840005
3.12671e-07
0.0840012
7.22954e-07
0.0840006
1.85472e-06
0.0840071
4.30799e-06
0.0839995
1.09194e-05
0.0840449
2.57239e-05
0.0840017
6.44344e-05
0.0842372
0.000155729
0.0841921
0.000391545
0.0851384
0.00100621
0.0868415
0.00282213
0.0951185
0.00899797
0.122312
0.0308762
0.129347
0.0874713
0.129548
0.0983379
0.127381
0.0999222
0.123936
0.095576
0.0880792
0.121376
0.0840003
8.82255e-11
0.0840003
5.26806e-10
0.0840003
1.91229e-09
0.0840003
5.13795e-09
0.0840003
1.40766e-08
0.0840004
3.39174e-08
0.0840003
8.62832e-08
0.0840008
2.07371e-07
0.0840001
5.09746e-07
0.0840027
1.24705e-06
0.0839998
2.99101e-06
0.084013
7.44786e-06
0.0840009
1.76309e-05
0.0840591
4.45042e-05
0.0840408
0.000105131
0.0842736
0.000268765
0.0844571
0.000663357
0.0856539
0.00180774
0.089118
0.00539463
0.101235
0.0188252
0.126821
0.0618571
0.129828
0.0953265
0.131546
0.0982018
0.128841
0.0982784
0.091776
0.125141
0.0840003
5.68854e-11
0.0840003
3.68253e-10
0.0840003
1.23686e-09
0.0840003
3.59313e-09
0.0840003
9.12157e-09
0.0840003
2.33722e-08
0.0840004
5.69928e-08
0.0840004
1.3951e-07
0.0840006
3.43517e-07
0.0840012
8.19201e-07
0.0840008
2.04607e-06
0.0840078
4.81422e-06
0.0840004
1.21305e-05
0.0840496
2.84185e-05
0.0840055
7.20447e-05
0.0842645
0.000170949
0.0842172
0.000437792
0.0852719
0.00111192
0.0871597
0.00314782
0.0961228
0.0100958
0.124141
0.0337599
0.132772
0.0866902
0.133607
0.097365
0.132148
0.0997358
0.0955536
0.128354
0.0840003
4.02209e-11
0.0840003
2.36606e-10
0.0840003
8.64773e-10
0.0840003
2.30773e-09
0.0840003
6.32224e-09
0.0840004
1.5202e-08
0.0840003
3.87866e-08
0.0840005
9.2496e-08
0.0840003
2.28926e-07
0.0840014
5.5335e-07
0.0840002
1.3375e-06
0.0840062
3.30041e-06
0.0840009
7.81817e-06
0.0840309
1.96197e-05
0.0840129
4.60539e-05
0.0841486
0.000117029
0.0841728
0.000278873
0.0847511
0.000721919
0.0857715
0.00190365
0.0903181
0.00573509
0.104506
0.0194711
0.130137
0.0610762
0.133286
0.0942124
0.135631
0.0973889
0.0976495
0.133531
0.0840003
2.44841e-11
0.0840003
1.60738e-10
0.0840003
5.39055e-10
0.0840003
1.56702e-09
0.0840003
3.98006e-09
0.0840003
1.01737e-08
0.0840004
2.46377e-08
0.0840003
6.09475e-08
0.0840005
1.47008e-07
0.0840006
3.5744e-07
0.0840011
8.71418e-07
0.0840028
2.08714e-06
0.0840024
5.14656e-06
0.0840195
1.22124e-05
0.0840072
3.03659e-05
0.0841219
7.19966e-05
0.0840717
0.000180661
0.084607
0.000439731
0.0850371
0.00114504
0.0879318
0.00316989
0.0970491
0.0101278
0.125545
0.0326306
0.135903
0.083852
0.136579
0.0967114
0.0978803
0.136346
0.0840003
1.66006e-11
0.0840003
1.02702e-10
0.0840003
3.5623e-10
0.0840003
9.99697e-10
0.0840003
2.62402e-09
0.0840003
6.47055e-09
0.0840003
1.63225e-08
0.0840004
3.8514e-08
0.0840004
9.74244e-08
0.0840006
2.25597e-07
0.0840005
5.75879e-07
0.0840026
1.32346e-06
0.0840005
3.37686e-06
0.0840154
7.80183e-06
0.0840005
1.97888e-05
0.0840878
4.62389e-05
0.0840229
0.000116635
0.0844226
0.000279991
0.0844864
0.000715985
0.086219
0.00188144
0.0903344
0.00559163
0.104566
0.0186511
0.132052
0.0562941
0.136915
0.0918425
0.0961483
0.138645
0.0840003
9.98821e-12
0.0840003
6.5564e-11
0.0840003
2.21391e-10
0.0840003
6.38407e-10
0.0840003
1.62544e-09
0.0840003
4.15323e-09
0.0840003
9.9288e-09
0.0840004
2.49527e-08
0.0840004
5.82992e-08
0.0840005
1.47121e-07
0.0840007
3.39621e-07
0.084001
8.59016e-07
0.0840032
1.98037e-06
0.0840028
4.99617e-06
0.0840204
1.15745e-05
0.0840122
2.89975e-05
0.0841237
6.80659e-05
0.0840996
0.000169671
0.0846366
0.00041139
0.0851547
0.00105567
0.0881801
0.00287576
0.0976737
0.00895336
0.126136
0.0278637
0.139056
0.0789301
0.0956411
0.139563
0.0840003
6.75487e-12
0.0840003
3.92954e-11
0.0840003
1.44451e-10
0.0840003
3.83328e-10
0.0840003
1.05353e-09
0.0840003
2.50001e-09
0.0840003
6.45251e-09
0.0840004
1.49784e-08
0.0840003
3.79127e-08
0.0840005
8.83651e-08
0.0840003
2.19854e-07
0.0840014
5.20599e-07
0.0840005
1.27081e-06
0.0840063
3.06624e-06
0.0840022
7.34111e-06
0.0840321
1.80571e-05
0.0840184
4.26637e-05
0.0841536
0.00010668
0.0841908
0.000253607
0.0847726
0.000648067
0.0857612
0.00166718
0.0900326
0.0048742
0.101816
0.0159674
0.132459
0.0483118
0.087999
0.140103
0.0840003
3.73677e-12
0.0840003
2.56503e-11
0.0840003
8.3268e-11
0.0840003
2.49481e-10
0.0840003
6.14549e-10
0.0840003
1.60762e-09
0.0840003
3.7782e-09
0.0840003
9.54073e-09
0.0840004
2.23527e-08
0.0840003
5.5358e-08
0.0840006
1.31359e-07
0.0840005
3.19039e-07
0.0840014
7.70457e-07
0.0840023
1.83677e-06
0.0840044
4.50862e-06
0.0840159
1.05905e-05
0.0840161
2.63588e-05
0.0841045
6.14997e-05
0.0841048
0.000154772
0.0845624
0.000367989
0.0850337
0.000949293
0.0876547
0.00251979
0.0957669
0.00765416
0.120161
0.0240031
0.068387
0.139732
0.0840003
2.51907e-12
0.0840003
1.49769e-11
0.0840003
5.37543e-11
0.0840003
1.46016e-10
0.0840003
3.92555e-10
0.0840003
9.44204e-10
0.0840003
2.41148e-09
0.0840003
5.60306e-09
0.0840003
1.42002e-08
0.0840004
3.26747e-08
0.0840004
8.24689e-08
0.0840007
1.90568e-07
0.0840004
4.76124e-07
0.0840026
1.11278e-06
0.0840012
2.74217e-06
0.0840126
6.51184e-06
0.0840076
1.57676e-05
0.0840639
3.82029e-05
0.0840615
9.13613e-05
0.0843193
0.000226101
0.0845359
0.000551053
0.085862
0.00143198
0.0892735
0.00400486
0.100623
0.0128055
0.0382966
0.130662
0.0840003
1.41911e-12
0.0840003
9.31925e-12
0.0840003
3.13903e-11
0.0840003
9.06574e-11
0.0840003
2.29904e-10
0.0840003
5.86719e-10
0.0840003
1.40425e-09
0.0840003
3.48808e-09
0.0840003
8.25131e-09
0.0840003
2.02946e-08
0.0840004
4.80574e-08
0.0840004
1.17454e-07
0.0840009
2.7957e-07
0.0840005
6.7821e-07
0.0840037
1.62554e-06
0.0840016
3.92116e-06
0.084019
9.46242e-06
0.0840104
2.2673e-05
0.0841007
5.52382e-05
0.0840841
0.000132658
0.0845039
0.000327109
0.0848334
0.000812801
0.0870051
0.00215021
0.0932838
0.00630855
0.0198487
0.111788
0.0840003
8.44652e-13
0.0840003
5.4634e-12
0.0840003
1.87157e-11
0.0840003
5.32147e-11
0.0840003
1.36715e-10
0.0840003
3.44868e-10
0.0840003
8.29301e-10
0.0840003
2.05391e-09
0.0840003
4.83166e-09
0.0840003
1.19824e-08
0.0840004
2.7895e-08
0.0840004
6.92009e-08
0.0840006
1.61303e-07
0.0840006
3.9758e-07
0.0840022
9.33729e-07
0.0840013
2.27399e-06
0.084012
5.40787e-06
0.0840062
1.30205e-05
0.0840671
3.13254e-05
0.0840463
7.47719e-05
0.0843477
0.000183005
0.0844516
0.000441732
0.0858488
0.00112521
0.0887303
0.00302905
0.00925014
0.0995913
0.0840003
5.14157e-13
0.0840003
3.16774e-12
0.0840003
1.11954e-11
0.0840003
3.08237e-11
0.0840003
8.16951e-11
0.0840003
1.99402e-10
0.0840003
4.96185e-10
0.0840003
1.18405e-09
0.0840003
2.8839e-09
0.0840003
6.90276e-09
0.0840003
1.65729e-08
0.0840004
4.00052e-08
0.0840004
9.49844e-08
0.0840007
2.31393e-07
0.0840008
5.43706e-07
0.0840021
1.33627e-06
0.0840043
3.11829e-06
0.0840074
7.68487e-06
0.0840298
1.79559e-05
0.0840309
4.41871e-05
0.0841839
0.000104301
0.0842115
0.000257238
0.0849747
0.000627566
0.0860238
0.00162521
0.0045764
0.0910721
0.0840003
2.98586e-13
0.0840003
1.83195e-12
0.0840003
6.47318e-12
0.0840003
1.78269e-11
0.0840003
4.72192e-11
0.0840003
1.14992e-10
0.0840003
2.87216e-10
0.0840003
6.79533e-10
0.0840003
1.67225e-09
0.0840003
3.93934e-09
0.0840003
9.61648e-09
0.0840004
2.27485e-08
0.0840004
5.50473e-08
0.0840006
1.31128e-07
0.0840005
3.15377e-07
0.0840019
7.56151e-07
0.0840015
1.80316e-06
0.0840084
4.36061e-06
0.0840095
1.03332e-05
0.0840376
2.51695e-05
0.0840695
5.94289e-05
0.0841933
0.000146136
0.0844488
0.000350488
0.0852338
0.000881549
0.00230375
0.087452
0.0840003
1.67681e-13
0.0840003
1.05223e-12
0.0840003
3.63714e-12
0.0840003
1.02345e-11
0.0840003
2.65518e-11
0.0840003
6.5754e-11
0.0840003
1.61251e-10
0.0840003
3.87502e-10
0.0840003
9.38949e-10
0.0840003
2.22991e-09
0.0840003
5.40515e-09
0.0840003
1.27802e-08
0.0840004
3.09791e-08
0.0840005
7.31433e-08
0.0840004
1.76829e-07
0.0840012
4.19015e-07
0.0840009
1.00809e-06
0.0840057
2.39606e-06
0.0840041
5.74046e-06
0.0840298
1.37047e-05
0.084027
3.27397e-05
0.0841532
7.86034e-05
0.0842075
0.000188668
0.0848037
0.00046122
0.00115399
0.0856973
0.0840003
9.14139e-14
0.0840003
6.05903e-13
0.0840003
2.00507e-12
0.0840003
5.88924e-12
0.0840003
1.46359e-11
0.0840003
3.76367e-11
0.0840003
8.92222e-11
0.0840003
2.1955e-10
0.0840003
5.21434e-10
0.0840003
1.25005e-09
0.0840003
3.0212e-09
0.0840003
7.08173e-09
0.0840003
1.73661e-08
0.0840004
4.02195e-08
0.0840004
9.94103e-08
0.0840008
2.2871e-07
0.0840007
5.66292e-07
0.0840033
1.30448e-06
0.0840023
3.21464e-06
0.0840169
7.4707e-06
0.0840137
1.81801e-05
0.0840883
4.29859e-05
0.0840947
0.000103481
0.0844464
0.000250116
0.000611613
0.084769
0.0840003
5.08263e-14
0.0840003
3.2084e-13
0.0840003
1.13816e-12
0.0840003
3.11748e-12
0.0840003
8.27969e-12
0.0840003
2.00452e-11
0.0840003
4.97466e-11
0.0840003
1.18072e-10
0.0840003
2.85126e-10
0.0840003
6.82184e-10
0.0840003
1.61407e-09
0.0840003
3.90447e-09
0.0840003
9.13101e-09
0.0840004
2.22977e-08
0.0840004
5.15819e-08
0.0840005
1.2705e-07
0.0840008
2.92109e-07
0.0840011
7.20576e-07
0.0840037
1.65981e-06
0.0840038
4.07461e-06
0.0840215
9.46409e-06
0.0840184
2.29877e-05
0.084125
5.42684e-05
0.0841208
0.000130857
0.000316026
0.0846501
0.0840003
2.81786e-14
0.0840003
1.68695e-13
0.0840003
5.97222e-13
0.0840003
1.63808e-12
0.0840003
4.32093e-12
0.0840003
1.04428e-11
0.0840003
2.59723e-11
0.0840003
6.04828e-11
0.0840003
1.49346e-10
0.0840003
3.42044e-10
0.0840003
8.42961e-10
0.0840003
1.93008e-09
0.0840003
4.7159e-09
0.0840004
1.08788e-08
0.0840003
2.6194e-08
0.0840005
6.125e-08
0.0840004
1.45154e-07
0.0840013
3.43776e-07
0.0840011
8.00444e-07
0.0840056
1.92077e-06
0.0840063
4.41236e-06
0.0840254
1.06788e-05
0.0840455
2.42426e-05
0.0841243
5.933e-05
0.000135018
0.0842981
0.0840003
1.28476e-14
0.0840003
8.82413e-14
0.0840003
2.81261e-13
0.0840003
8.6101e-13
0.0840003
2.03902e-12
0.0840003
5.43899e-12
0.0840003
1.21769e-11
0.0840003
3.10951e-11
0.0840003
6.93213e-11
0.0840003
1.72089e-10
0.0840003
3.89782e-10
0.0840003
9.39917e-10
0.0840003
2.18216e-09
0.0840003
5.07685e-09
0.0840004
1.21845e-08
0.0840004
2.72264e-08
0.0840004
6.74079e-08
0.0840008
1.45202e-07
0.0840007
3.69002e-07
0.0840033
7.73618e-07
0.0840015
1.98118e-06
0.0840192
4.1211e-06
0.0840061
1.04804e-05
0.0841064
2.18855e-05
5.46274e-05
0.0840543
0.0840003
6.45577e-15
0.0840003
4.11299e-14
0.0840003
1.40478e-13
0.0840003
3.93967e-13
0.0840003
1.0114e-12
0.0840003
2.47325e-12
0.0840003
5.95431e-12
0.0840003
1.40167e-11
0.0840003
3.31167e-11
0.0840003
7.71112e-11
0.0840003
1.80443e-10
0.0840003
4.18643e-10
0.0840003
9.7204e-10
0.0840003
2.24917e-09
0.0840003
5.19268e-09
0.0840004
1.19791e-08
0.0840004
2.7417e-08
0.0840005
6.31191e-08
0.0840007
1.43175e-07
0.0840007
3.27842e-07
0.0840036
7.37847e-07
0.084
1.67499e-06
0.0840224
3.73987e-06
0.0839961
8.40928e-06
1.86627e-05
0.0841173
0.0840003
2.16255e-15
0.0840003
2.01085e-14
0.0840003
6.43494e-14
0.0840003
1.78955e-13
0.0840003
4.64279e-13
0.0840003
1.10276e-12
0.0840003
2.66454e-12
0.0840003
6.21284e-12
0.0840003
1.45179e-11
0.0840003
3.37991e-11
0.0840003
7.73623e-11
0.0840003
1.80822e-10
0.0840003
4.05173e-10
0.0840003
9.58737e-10
0.0840003
2.10752e-09
0.0840004
5.002e-09
0.0840003
1.07896e-08
0.0840004
2.58487e-08
0.0840005
5.49465e-08
0.0840003
1.2856e-07
0.0840022
2.78785e-07
0.0839976
6.3002e-07
0.0840147
1.38302e-06
0.0839818
2.9869e-06
6.7458e-06
0.0840754
0.0840003
2.52055e-15
0.0840003
5.3217e-15
0.0840003
3.91397e-14
0.0840003
5.66025e-14
0.0840003
2.5718e-13
0.0840003
3.53066e-13
0.0840003
1.44374e-12
0.0840003
1.97342e-12
0.0840003
7.53593e-12
0.0840003
1.1213e-11
0.0840003
3.77306e-11
0.0840003
6.47912e-11
0.0840003
1.82071e-10
0.0840003
3.86971e-10
0.0840003
8.18016e-10
0.0840004
2.34587e-09
0.0840003
3.51477e-09
0.0840004
1.43306e-08
0.0840003
1.41612e-08
0.0840003
8.58502e-08
0.0840011
4.13582e-08
0.0839977
4.91741e-07
0.0840092
7.14058e-08
0.0839796
2.60271e-06
-1.30253e-07
0.0840489
0.0840003
-3.31766e-17
0.0840003
5.58646e-15
0.0840003
8.14496e-15
0.0840003
3.6751e-14
0.0840003
7.61489e-14
0.0840003
2.20172e-13
0.0840003
5.08167e-13
0.0840003
1.11467e-12
0.0840003
3.13853e-12
0.0840003
5.1386e-12
0.0840003
1.87931e-11
0.0840003
2.46727e-11
0.0840003
1.0772e-10
0.0840003
1.19287e-10
0.0840003
6.20124e-10
0.0840003
4.13706e-10
0.0840003
3.39352e-09
0.0840004
9.97632e-10
0.0840001
1.73098e-08
0.0840009
4.01756e-09
0.0839984
8.15067e-08
0.0840054
4.83832e-08
0.0839873
3.23788e-07
0.0840321
4.3126e-07
1.40901e-06
0.0839346
0.0840003
-2.08167e-16
0.0840003
1.25572e-15
0.0840003
4.19153e-16
0.0840003
2.6337e-14
0.0840003
3.34238e-15
0.0840003
1.76528e-13
0.0840003
-1.7808e-14
0.0840003
1.0849e-12
0.0840003
-2.90941e-13
0.0840003
6.20538e-12
0.0840003
-2.17468e-12
0.0840003
3.27454e-11
0.0840003
-1.08317e-11
0.0840003
1.55064e-10
0.0840003
-4.38862e-11
0.0840003
6.6237e-10
0.0840004
4.30303e-10
0.0840002
2.13669e-09
0.0840006
7.33198e-09
0.0839998
-9.15482e-10
0.084001
7.02004e-08
0.0839996
-8.3315e-08
0.0839979
5.25078e-07
0.0840036
-7.50762e-07
2.94811e-06
0.0839842
0.0840003
0.0840003
0.0840003
0.0840003
0.0840003
0.0840003
0.0840003
0.0840003
0.0840003
0.0840003
0.0840003
0.0840003
0.0840003
0.0840003
0.0840003
0.0840004
0.0840003
0.0840004
0.0840002
0.0840003
0.0840004
0.0839982
0.0840055
0.0839812
0.0840337
0.0479948
0.0407006
0.031502
0.0164326
0.0232219
0.00797291
0.0191416
0.0037216
0.0170084
0.0013246
0.00908265
0.00628614
0.000300787
0.00792784
-0.00589919
0.00617231
-0.0108494
0.00487316
-0.0148259
0.00407096
-0.0179901
0.00333543
-0.0203725
0.00249937
-0.0221342
0.00179953
-0.0232827
0.00123113
-0.0241163
0.000941771
-0.0248958
0.000880621
-0.0257742
0.000979451
-0.026698
0.00102213
-0.0275844
0.000956616
-0.0283927
0.000882503
-0.0291275
0.000795672
-0.0297308
0.000659139
-0.0301788
0.000511909
-0.0306755
0.000532515
-0.0311604
0.000522781
-0.0315174
0.000393673
-0.0316991
0.000206665
-0.0316788
-8.90697e-06
-0.0313873
-0.00029332
-0.0306695
-0.000733444
-0.0294761
-0.00121344
-0.0278491
-0.00165287
-0.0258457
-0.00202733
-0.02351
-0.00235568
-0.0209747
-0.00255241
-0.0183324
-0.00265518
-0.0156507
-0.00269438
-0.0129347
-0.00272415
-0.0101607
-0.00277975
-0.00739712
-0.0027688
-0.00466227
-0.00273861
-0.00189351
-0.00277233
0.000907374
-0.00280293
0.00352061
-0.00261547
0.00598333
-0.00246519
0.00834558
-0.00236576
0.0106144
-0.00227289
0.0127827
-0.00217366
0.0148416
-0.00206417
0.0168155
-0.00198009
0.0187546
-0.00194643
0.0206317
-0.00188511
0.0224267
-0.00180315
0.0241255
-0.00170709
0.0257404
-0.00162304
0.0272696
-0.00153734
0.0287234
-0.00146177
0.0300981
-0.00138233
0.0314033
-0.00131156
0.0326358
-0.00123779
0.0338023
-0.00117145
0.0349013
-0.00110337
0.0359394
-0.00104217
0.0369151
-0.000980113
0.037834
-0.000924327
0.0386953
-0.000868425
0.0395045
-0.000818211
0.0402605
-0.000768457
0.0409692
-0.000723817
0.0416292
-0.000680109
0.0422474
-0.000641076
0.0428209
-0.000603483
0.043358
-0.000570288
0.0438531
-0.000539195
0.0443177
-0.000512451
0.0447444
-0.000488745
0.0451474
-0.000469689
0.0455181
-0.000455039
0.0458692
-0.000445788
0.046198
-0.000442165
0.0465102
-0.00044474
0.0468107
-0.000454232
0.0471006
-0.00047085
0.0473846
-0.00049455
0.0476685
-0.000525032
0.0479261
-0.000559321
0.0482135
-0.000598308
0.0485168
-0.000640239
0.0488371
-0.000683963
0.0491734
-0.000727466
0.0495224
-0.000764287
0.049872
-0.000788274
0.0502229
-0.000795488
0.0505719
-0.000784532
0.0509146
-0.000752986
0.0512526
-0.000705014
0.0515574
-0.000641938
0.0518454
-0.000568579
0.0520738
-0.000488463
-0.000433514
0.0634459
0.0603241
0.0487129
0.0310545
0.0416187
0.0148269
0.0366221
0.00832757
0.0329649
0.00423319
0.0323436
0.00566041
0.0260912
0.0133767
0.0199252
0.012539
0.0148482
0.0102515
0.0103213
0.00889945
0.00628507
0.0076281
0.00241627
0.00653662
-0.00134019
0.00565358
-0.00492943
0.00491811
-0.00821954
0.00434258
-0.0110867
0.00387607
-0.0134264
0.00344288
-0.0153087
0.00296914
-0.0167639
0.00247075
-0.0178562
0.00204618
-0.0188189
0.00180182
-0.0196946
0.00158615
-0.0204516
0.00132802
-0.0209878
0.00110054
-0.0214271
0.00099714
-0.0217301
0.000731293
-0.0217692
0.000268657
-0.0215578
-0.000211746
-0.0209558
-0.000903654
-0.0198043
-0.00190826
-0.0181295
-0.00291606
-0.0160443
-0.00376993
-0.0136347
-0.00446766
-0.010957
-0.00506061
-0.00817271
-0.00535896
-0.00535999
-0.0054865
-0.00251892
-0.00555078
0.000426667
-0.00567961
0.00317311
-0.00553395
0.00580384
-0.00540468
0.00838982
-0.00532673
0.010854
-0.00523613
0.0131963
-0.00514386