/*--------------------------------*- C++ -*----------------------------------*\
  =========                 |
  \\      /  F ield         | OpenFOAM: The Open Source CFD Toolbox
   \\    /   O peration     | Website:  https://openfoam.org
    \\  /    A nd           | Version:  13
     \\/     M anipulation  |
\*---------------------------------------------------------------------------*/
FoamFile
{
    format      ascii;
    class       volScalarField;
    location    "5";
    object      rho;
}
// * * * * * * * * * * * * * * * * * * * * * * * * * * * * * * * * * * * * * //

dimensions      [1 -3 0 0 0 0 0];

internalField   nonuniform List<scalar> 
5250
(
1.40001
1.40002
1.40007
1.40014
1.40041
1.40086
1.40246
1.40526
1.41456
1.43224
1.48147
1.58143
1.80384
2.28273
4.23582
5.926
5.76018
5.64721
5.66592
5.74738
5.8367
5.88859
5.92916
5.96061
5.9866
1.40001
1.40002
1.40006
1.40016
1.40036
1.40097
1.40213
1.40587
1.41296
1.43405
1.47719
1.58192
1.79593
2.26973
4.18257
5.93342
5.76164
5.64451
5.66368
5.74575
5.83518
5.88729
5.92865
5.96086
5.98776
1.40001
1.40002
1.40006
1.40014
1.40038
1.40084
1.40233
1.40503
1.41384
1.43072
1.47759
1.57351
1.7867
2.23916
4.06438
5.95029
5.76473
5.63601
5.65487
5.73553
5.82413
5.87603
5.91652
5.94917
5.97631
1.40001
1.40002
1.40006
1.40013
1.40035
1.40083
1.4021
1.40508
1.41246
1.43034
1.47224
1.56682
1.7682
2.19681
3.88076
5.97672
5.7712
5.62245
5.63851
5.71765
5.80429
5.85321
5.89405
5.9248
5.95239
1.40001
1.40002
1.40006
1.40012
1.40035
1.40072
1.40207
1.40443
1.4122
1.42719
1.46885
1.55467
1.74707
2.14274
3.63805
6.0075
5.78254
5.60617
5.61847
5.69044
5.7769
5.82317
5.8601
5.89075
5.91925
1.40001
1.40002
1.40005
1.40011
1.40032
1.40067
1.4019
1.40405
1.41123
1.42476
1.46342
1.54213
1.72129
2.08402
3.34679
6.02298
5.79664
5.5896
5.59561
5.65768
5.73848
5.78185
5.81446
5.84183
5.87224
1.40001
1.40002
1.40004
1.40012
1.40025
1.4007
1.40151
1.40413
1.40925
1.42418
1.45522
1.53269
1.69246
2.02927
3.06701
5.97541
5.78873
5.56632
5.56599
5.61603
5.69014
5.72522
5.75101
5.77201
5.80305
1.40001
1.40002
1.40004
1.4001
1.40025
1.40059
1.40145
1.40365
1.40861
1.42174
1.45088
1.52104
1.66987
1.98061
2.87217
5.78249
5.71477
5.52894
5.52483
5.55855
5.62395
5.64996
5.66376
5.67277
5.69954
1.40001
1.40002
1.40004
1.4001
1.40021
1.40057
1.40127
1.40336
1.40775
1.4198
1.44612
1.51084
1.64709
1.93568
2.69762
5.47399
5.58609
5.50418
5.47655
5.48806
5.53765
5.54982
5.54492
5.52832
5.53114
1.40001
1.40001
1.40003
1.40008
1.40019
1.4005
1.40114
1.40305
1.4068
1.41808
1.44097
1.50057
1.62379
1.88982
2.53564
5.08503
5.51808
5.46822
5.40989
5.41112
5.43178
5.42398
5.39265
5.31993
5.26027
1.40001
1.40001
1.40003
1.40008
1.40016
1.40046
1.40097
1.40275
1.40586
1.41617
1.4358
1.4897
1.59922
1.84018
2.38337
4.62027
5.47785
5.43692
5.34002
5.32385
5.3142
5.28085
5.18687
4.96136
4.30292
1.40001
1.40001
1.40003
1.40006
1.40015
1.40038
1.40086
1.40232
1.40511
1.41379
1.43093
1.47744
1.57365
1.78585
2.23738
4.07492
5.46102
5.41204
5.28361
5.23407
5.20026
5.12821
4.97209
4.64776
3.93841
1.40001
1.40001
1.40002
1.40006
1.40012
1.40032
1.4007
1.40196
1.40418
1.41163
1.42551
1.46527
1.54605
1.72883
2.09835
3.46677
5.4529
5.39977
5.24919
5.15147
5.08951
4.9838
4.78179
4.43842
3.86477
1.40001
1.40001
1.40002
1.40004
1.40011
1.40023
1.40066
1.40138
1.40388
1.40836
1.42253
1.45017
1.52259
1.66895
1.97618
2.84923
5.36332
5.35212
5.24157
5.08893
4.98859
4.86121
4.64393
4.31865
3.87155
1.40001
1.40001
1.40002
1.40004
1.40008
1.40022
1.40046
1.40129
1.4028
1.40758
1.41702
1.44347
1.49872
1.62756
1.88869
2.53844
4.96539
5.25272
5.18726
5.02997
4.90293
4.75641
4.55379
4.24766
3.88111
1.40001
1.40001
1.40001
1.40003
1.40007
1.40018
1.40038
1.40105
1.40223
1.40622
1.41351
1.4358
1.47998
1.58895
1.8076
2.30016
4.27489
5.14196
5.10785
4.98656
4.83307
4.67289
4.48093
4.20679
3.88434
1.40001
1.40001
1.40001
1.40003
1.40005
1.40014
1.40029
1.40082
1.40176
1.40487
1.41067
1.42821
1.46341
1.55184
1.73049
2.10525
3.53146
5.09336
5.06985
4.96861
4.78443
4.60961
4.42188
4.17589
3.88721
1.40001
1.40001
1.40001
1.40002
1.40004
1.40011
1.40022
1.40063
1.40132
1.40371
1.40796
1.4215
1.44764
1.51664
1.65556
1.94022
2.72493
4.95578
5.05297
4.96864
4.77432
4.57182
4.37987
4.15239
3.89248
1.40001
1.40001
1.40001
1.40002
1.40003
1.40008
1.40018
1.40048
1.40101
1.40285
1.40602
1.41659
1.43637
1.49101
1.60081
1.83984
2.38082
4.45492
4.96364
4.91245
4.762
4.54739
4.35015
4.1367
3.89807
1.40001
1.40001
1.40001
1.40001
1.40003
1.40006
1.40014
1.40034
1.4008
1.40205
1.40469
1.41221
1.4279
1.46892
1.55565
1.74542
2.12966
3.65154
4.86963
4.84785
4.7503
4.5398
4.33288
4.12704
3.90668
1.40001
1.40001
1.40001
1.40001
1.40002
1.40004
1.40011
1.40023
1.40062
1.40139
1.4036
1.40835
1.4209
1.44883
1.51529
1.65617
1.92993
2.7283
4.70257
4.82692
4.75314
4.56671
4.33572
4.12709
3.92054
1.40001
1.40001
1.40001
1.40001
1.40002
1.40003
1.40008
1.40017
1.40046
1.40096
1.40272
1.40572
1.4158
1.4344
1.48642
1.59018
1.81467
2.30884
4.17588
4.7526
4.71204
4.58474
4.35412
4.1394
3.93787
1.40001
1.40001
1.40001
1.40001
1.40001
1.40003
1.40006
1.40013
1.40032
1.4007
1.40192
1.4041
1.41128
1.42457
1.46276
1.5393
1.71298
2.04563
3.31306
4.63344
4.63942
4.57353
4.39337
4.16833
3.96204
1.40001
1.40001
1.40001
1.40001
1.40001
1.40002
1.40004
1.40009
1.40022
1.40049
1.40131
1.40283
1.40771
1.41675
1.44343
1.4964
1.62261
1.85307
2.45523
4.32584
4.62249
4.5707
4.43024
4.20624
3.99224
1.40001
1.40001
1.40001
1.40001
1.40001
1.40002
1.40003
1.40007
1.40015
1.40035
1.40086
1.40202
1.40514
1.41179
1.42978
1.46796
1.55891
1.74167
2.11898
3.57722
4.53794
4.52176
4.45118
4.26825
4.03443
1.40001
1.40001
1.40001
1.40001
1.40001
1.40001
1.40002
1.40005
1.40009
1.40025
1.40053
1.40146
1.40314
1.4084
1.41862
1.4472
1.50525
1.63991
1.87812
2.57516
4.30672
4.51423
4.46224
4.33041
4.09656
1.40001
1.40001
1.40001
1.40001
1.40001
1.40001
1.40002
1.40003
1.40007
1.40016
1.40038
1.40093
1.40215
1.40552
1.4125
1.43174
1.47168
1.56745
1.75401
2.15576
3.67002
4.43818
4.42494
4.35618
4.18549
1.40001
1.40001
1.40001
1.40001
1.40001
1.40001
1.40001
1.40002
1.40005
1.4001
1.40027
1.40056
1.40152
1.40328
1.40877
1.41938
1.44914
1.50906
1.64766
1.89146
2.67014
4.2087
4.40713
4.36463
4.24959
1.40001
1.40001
1.40001
1.40001
1.40001
1.40001
1.40001
1.40002
1.40003
1.40007
1.40016
1.40039
1.40091
1.4023
1.40524
1.41338
1.4304
1.47391
1.56495
1.75123
2.14694
3.60554
4.32625
4.32369
4.27003
1.40001
1.40001
1.40001
1.40001
1.40001
1.40001
1.40001
1.40001
1.40002
1.40004
1.40011
1.40023
1.40063
1.40131
1.40362
1.40766
1.42055
1.44481
1.50935
1.63512
1.87157
2.595
4.07606
4.30454
4.27343
1.40001
1.40001
1.40001
1.40001
1.40001
1.40001
1.40001
1.40001
1.40002
1.40003
1.40007
1.40015
1.40039
1.40084
1.40219
1.40497
1.41249
1.42891
1.46923
1.55559
1.72982
2.09402
3.43605
4.21095
4.24176
1.40001
1.40001
1.40001
1.40001
1.40001
1.40001
1.40001
1.40001
1.40001
1.40002
1.40004
1.4001
1.40021
1.40057
1.4012
1.40328
1.40699
1.41852
1.44053
1.49849
1.61202
1.81963
2.38195
3.92768
4.22092
1.40001
1.40001
1.40001
1.40001
1.40001
1.40001
1.40001
1.40001
1.40001
1.40001
1.40003
1.40006
1.40014
1.40033
1.40078
1.40193
1.40443
1.41121
1.42538
1.46211
1.53817
1.69876
2.01063
3.18351
4.08054
1.40001
1.40001
1.40001
1.40001
1.40001
1.40001
1.40001
1.40001
1.40001
1.40001
1.40002
1.40004
1.40009
1.40019
1.4005
1.40106
1.40287
1.40608
1.41624
1.43514
1.48681
1.58662
1.77589
2.24468
3.70146
1.40001
1.40001
1.40001
1.40001
1.40001
1.40001
1.40001
1.40001
1.40001
1.40001
1.40001
1.40002
1.40006
1.40012
1.40029
1.40068
1.40158
1.40397
1.40896
1.42262
1.45075
1.51978
1.6544
1.91156
2.80514
1.40001
1.40001
1.40001
1.40001
1.40001
1.40001
1.40001
1.40001
1.40001
1.40001
1.40001
1.40002
1.40003
1.40008
1.40016
1.4004
1.40093
1.40224
1.40545
1.41265
1.43077
1.4703
1.55968
1.7232
2.09675
1.40001
1.40001
1.40001
1.40001
1.40001
1.40001
1.40001
1.40001
1.40001
1.40001
1.40001
1.40001
1.40002
1.40005
1.40009
1.40024
1.40052
1.40132
1.40301
1.40734
1.41729
1.44065
1.49341
1.60344
1.79356
1.40001
1.40001
1.40001
1.40001
1.40001
1.40001
1.40001
1.40001
1.40001
1.40001
1.40001
1.40001
1.40001
1.40003
1.40006
1.40014
1.40029
1.40079
1.40164
1.40446
1.4094
1.42479
1.45355
1.52821
1.66349
1.40001
1.40001
1.40001
1.40001
1.40001
1.40001
1.40001
1.40001
1.40001
1.40001
1.40001
1.40001
1.40001
1.40002
1.40004
1.40008
1.40018
1.40043
1.40095
1.40245
1.40532
1.41392
1.43019
1.47421
1.55978
1.40001
1.40001
1.40001
1.40001
1.40001
1.40001
1.40001
1.40001
1.40001
1.40001
1.40001
1.40001
1.40001
1.40001
1.40002
1.40004
1.4001
1.40023
1.40055
1.4013
1.40304
1.40748
1.41693
1.44133
1.4915
1.40001
1.40001
1.40001
1.40001
1.40001
1.40001
1.40001
1.40001
1.40001
1.40001
1.40001
1.40001
1.40001
1.40001
1.40002
1.40003
1.40006
1.40013
1.40031
1.40072
1.40171
1.40419
1.40949
1.42359
1.45255
1.40001
1.40001
1.40001
1.40001
1.40001
1.40001
1.40001
1.40001
1.40001
1.40001
1.40001
1.40001
1.40001
1.40001
1.40001
1.40002
1.40003
1.40008
1.40017
1.40043
1.40092
1.4024
1.40526
1.41333
1.42968
1.40001
1.40001
1.40001
1.40001
1.40001
1.40001
1.40001
1.40001
1.40001
1.40001
1.40001
1.40001
1.40001
1.40001
1.40001
1.40001
1.40002
1.40005
1.4001
1.40025
1.40055
1.4014
1.40305
1.40798
1.41709
1.40001
1.40001
1.40001
1.40001
1.40001
1.40001
1.40001
1.40001
1.40001
1.40001
1.40001
1.40001
1.40001
1.40001
1.40001
1.40001
1.40002
1.40003
1.40008
1.40016
1.40041
1.40089
1.40228
1.40522
1.41288
1.40001
1.40001
1.40001
1.40001
1.40001
1.40001
1.40001
1.40001
1.40001
1.40001
1.40001
1.40001
1.40001
1.40001
1.40001
1.40001
1.40001
1.40003
1.40005
1.40014
1.4003
1.40081
1.40172
1.40471
1.41028
1.40001
1.40001
1.40001
1.40001
1.40001
1.40001
1.40001
1.40001
1.40001
1.40001
1.40001
1.40001
1.40001
1.40001
1.40001
1.40001
1.40001
1.40003
1.40005
1.40013
1.40027
1.40075
1.40158
1.40441
1.4096
1.40001
1.40001
1.40001
1.40001
1.40001
1.40001
1.40001
1.40001
1.40001
1.40001
1.40001
1.40001
1.40001
1.40001
1.40001
1.40001
1.40001
1.40002
1.40005
1.40012
1.40026
1.40073
1.40153
1.40432
1.40933
1.40001
1.40001
1.40001
1.40001
1.40001
1.40001
1.40001
1.40001
1.40001
1.40001
1.40001
1.40001
1.40001
1.40001
1.40001
1.40001
1.40001
1.40002
1.40005
1.40011
1.40029
1.40062
1.40174
1.40377
1.41028
1.40001
1.40001
1.40001
1.40001
1.40001
1.40001
1.40001
1.40001
1.40001
1.40001
1.40001
1.40001
1.40001
1.40001
1.40001
1.40001
1.40001
1.40002
1.40005
1.40011
1.40029
1.40062
1.40175
1.4037
1.4104
1.40001
1.40001
1.40001
1.40001
1.40001
1.40001
1.40001
1.40001
1.40001
1.40001
1.40001
1.40001
1.40001
1.40001
1.40001
1.40001
1.40001
1.40002
1.40005
1.40012
1.40025
1.40071
1.4015
1.40425
1.40918
1.90569
1.05628
0.801772
0.790652
0.909304
1.22094
1.42337
1.46036
1.51263
1.54639
1.55288
1.54878
1.54686
1.55058
1.54842
1.54158
1.53288
1.52014
1.50829
1.49652
1.48289
1.47059
1.45402
1.44372
1.44131
1.44147
1.44359
1.45796
1.48468
1.52585
1.57669
1.63346
1.69288
1.75153
1.8075
1.85851
1.9039
1.94577
1.98197
2.01569
2.04515
2.07062
2.09355
2.11315
2.12963
2.14119
2.15145
2.15695
2.16229
2.16375
2.16597
2.16163
2.15966
2.15226
2.14769
2.13741
2.13044
2.11775
2.1087
2.09444
2.08369
2.06808
2.056
2.03941
2.02627
2.00895
1.99503
1.97727
1.96279
1.94487
1.93008
1.91238
1.89749
1.88036
1.86555
1.84944
1.83504
1.82054
1.80709
1.7946
1.78301
1.77289
1.76415
1.75706
1.75189
1.74911
1.7496
1.75054
1.7524
1.75606
1.76235
1.77146
1.77962
1.79001
1.79783
1.80658
1.81214
1.81664
1.81921
1.82402
2.35191
1.56812
1.21946
1.19203
1.21263
1.30184
1.51092
1.54073
1.53409
1.53114
1.52567
1.52051
1.51591
1.50981
1.50247
1.49085
1.47348
1.45902
1.45035
1.43618
1.42259
1.41151
1.39639
1.38468
1.38048
1.37936
1.38015
1.39242
1.4183
1.46068
1.51504
1.57581
1.64096
1.70614
1.77003
1.82818
1.88203
1.93124
1.97881
2.02111
2.06143
2.09364
2.12467
2.14975
2.17292
2.1895
2.20486
2.21514
2.22414
2.22986
2.23538
2.23471
2.23426
2.23027
2.22698
2.21988
2.21358
2.20359
2.19486
2.18268
2.17195
2.15815
2.14585
2.13075
2.11733
2.10117
2.08702
2.07014
2.05547
2.03816
2.02318
2.00588
1.99081
1.97403
1.95907
1.94339
1.92889
1.91478
1.90141
1.88923
1.87798
1.86816
1.85987
1.85326
1.84864
1.84651
1.84775
1.84969
1.85247
1.85684
1.86423
1.87375
1.88294
1.8938
1.90281
1.91182
1.91853
1.92312
1.92666
1.93294
2.87512
2.15284
1.70981
1.43571
1.40013
1.41051
1.49429
1.65501
1.65197
1.60984
1.59023
1.57129
1.55384
1.53542
1.51507
1.49231
1.47038
1.44874
1.42996
1.41302
1.39624
1.3769
1.35555
1.33853
1.33188
1.33115
1.3326
1.34413
1.36945
1.41136
1.46949
1.53814
1.61001
1.68488
1.75865
1.82905
1.89359
1.95134
2.00511
2.05261
2.09442
2.13091
2.16361
2.19174
2.21682
2.23646
2.25399
2.26644
2.2772
2.28494
2.29233
2.29412
2.29409
2.291
2.28846
2.2823
2.27636
2.26709
2.25825
2.24649
2.23541
2.22161
2.2089
2.19352
2.17958
2.16303
2.14811
2.13075
2.1151
2.09736
2.08126
2.06365
2.04741
2.03039
2.01438
1.99837
1.9831
1.96856
1.95478
1.94216
1.93074
1.92073
1.91243
1.90592
1.90139
1.89933
1.90059
1.90254
1.90549
1.90974
1.91672
1.92524
1.93369
1.94313
1.9515
1.95928
1.96557
1.96962
1.97296
1.97999
3.17092
2.54028
2.05694
1.73329
1.56956
1.5551
1.57604
1.67909
1.76927
1.76195
1.72429
1.67969
1.64294
1.61683
1.58598
1.55105
1.51904
1.48825
1.45676
1.42864
1.40383
1.37942
1.35603
1.33821
1.32681
1.32036
1.32058
1.32893
1.35274
1.40039
1.46702
1.54205
1.62403
1.70592
1.78698
1.8592
1.92625
1.9858
2.04172
2.09046
2.1356
2.17394
2.20989
2.23976
2.26735
2.28896
2.30831
2.32225
2.33398
2.34263
2.35105
2.35448
2.35442
2.35149
2.3491
2.34381
2.33833
2.32979
2.32131
2.30998
2.29915
2.28564
2.27301
2.25792
2.24384
2.22762
2.21242
2.19543
2.17944
2.16205
2.1456
2.12818
2.11162
2.09461
2.07834
2.06226
2.04691
2.03231
2.01868
2.00621
1.99508
1.98553
1.97769
1.97169
1.96772
1.96591
1.96722
1.9692
1.972
1.97608
1.98208
1.98867
1.99585
2.00275
2.00943
2.01518
2.02002
2.02327
2.02646
2.03371
3.34685
2.81199
2.35276
2.01883
1.77329
1.69799
1.68919
1.71343
1.82347
1.86801
1.85393
1.81747
1.77484
1.73066
1.68541
1.64405
1.60992
1.56937
1.52679
1.49071
1.45889
1.42576
1.39725
1.37599
1.36015
1.351
1.35071
1.36071
1.38939
1.44052
1.50628
1.58353
1.66306
1.74633
1.82708
1.90223
1.97209
2.03515
2.0935
2.14562
2.1928
2.23402
2.27083
2.30241
2.33027
2.35292
2.37247
2.38706
2.39884
2.40757
2.41574
2.41985
2.41967
2.41571
2.41181
2.40548
2.39903
2.38951
2.38022
2.36796
2.35634
2.34202
2.32856
2.31271
2.29782
2.28098
2.26499
2.24764
2.23087
2.2134
2.19621
2.17904
2.16187
2.14534
2.12885
2.11335
2.09832
2.08439
2.07143
2.0598
2.04961
2.04091
2.03413
2.0289
2.02581
2.02424
2.02565
2.02726
2.0297
2.03287
2.03709
2.0411
2.04548
2.04895
2.05241
2.05454
2.05702
2.05811
2.06057
2.06618
3.46108
3.00756
2.59802
2.25815
2.00698
1.82584
1.79659
1.78809
1.8185
1.92659
1.95504
1.92984
1.8898
1.85511
1.80797
1.75599
1.71114
1.6659
1.62239
1.58588
1.54425
1.50344
1.47583
1.45464
1.43077
1.42361
1.42335
1.43925
1.47462
1.52229
1.58251
1.65114
1.72684
1.80167
1.87998
1.95577
2.02781
2.0927
2.15275
2.20528
2.25362
2.29471
2.33238
2.36353
2.39186
2.41404
2.4338
2.44776
2.45957
2.46716
2.47522
2.479
2.48045
2.47563
2.47131
2.46406
2.45754
2.44753
2.43818
2.42534
2.41328
2.39842
2.38417
2.36797
2.35215
2.33505
2.31821
2.30063
2.28308
2.26536
2.24747
2.22991
2.21228
2.1953
2.17865
2.16294
2.1479
2.13419
2.12161
2.11053
2.10125
2.09335
2.08773
2.08323
2.08114
2.07967
2.08074
2.08172
2.08373
2.08476
2.08675
2.08746
2.08878
2.08771
2.08762
2.08563
2.0851
2.08334
2.08481
2.0881
3.53798
3.15374
2.78761
2.46908
2.20443
2.00714
1.88612
1.87102
1.86568
1.89755
2.0041
2.02408
1.99062
1.9568
1.92099
1.87128
1.8233
1.77411
1.72239
1.68354
1.64324
1.60553
1.57486
1.54921
1.53081
1.52768
1.52977
1.55924
1.59827
1.64039
1.68911
1.74388
1.80337
1.86268
1.92832
2.00009
2.07316
2.14175
2.20437
2.25929
2.30843
2.35042
2.38819
2.41955
2.44757
2.46974
2.48913
2.50302
2.51449
2.52143
2.52874
2.53243
2.53462
2.52984
2.52462
2.5164
2.50868
2.49824
2.48785
2.47501
2.46196
2.44699
2.43176
2.41534
2.39857
2.38128
2.36356
2.34577
2.32774
2.30979
2.29199
2.27429
2.25704
2.24022
2.22414
2.2089
2.19485
2.18182
2.17059
2.16046
2.1525
2.1457
2.14108
2.13739
2.13555
2.13402
2.13384
2.13328
2.13321
2.13145
2.13003
2.12636
2.12298
2.11744
2.11275
2.10653
2.10221
2.09703
2.09504
2.09712
3.59102
3.26332
2.93601
2.64105
2.38031
2.17432
2.01398
1.94346
1.93317
1.93508
1.96877
2.06156
2.07333
2.04491
2.0155
1.97541
1.92852
1.87957
1.82941
1.78388
1.74244
1.70629
1.6789
1.66287
1.64658
1.64487
1.66821
1.71989
1.76096
1.79378
1.82836
1.86167
1.89667
1.93665
1.98182
2.03332
2.10377
2.17639
2.2454
2.30572
2.35812
2.40167
2.44022
2.47148
2.49953
2.52131
2.54042
2.55389
2.56518
2.57086
2.5773
2.58044
2.58273
2.57867
2.5723
2.56329
2.55393
2.543
2.53136
2.51841
2.50447
2.4895
2.47357
2.45699
2.43967
2.42203
2.40401
2.38582
2.36763
2.34942
2.33147
2.31384
2.29669
2.28024
2.26473
2.25008
2.23704
2.22516
2.21536
2.20684
2.20051
2.19524
2.19187
2.18898
2.18747
2.18553
2.18424
2.18155
2.17906
2.17406
2.16906
2.16135
2.15358
2.14418
2.13556
2.12592
2.11795
2.11
2.10386
2.10559
3.63379
3.34132
3.05548
2.77754
2.53412
2.32044
2.15514
2.02706
1.98854
1.98252
1.98812
2.03587
2.10782
2.11161
2.08972
2.05907
2.0248
1.97714
1.9276
1.88316
1.84255
1.81375
1.78797
1.77262
1.76559
1.78513
1.85085
1.91708
1.95085
1.97087
1.99157
2.00321
2.00014
2.01963
2.04512
2.07629
2.12109
2.18413
2.25505
2.32296
2.38136
2.43084
2.47109
2.50379
2.53138
2.55282
2.57145
2.58472
2.59583
2.60176
2.60697
2.60997
2.61193
2.60988
2.60369
2.59499
2.585
2.57394
2.56163
2.54851
2.53404
2.51882
2.50259
2.48573
2.46844
2.45075
2.43305
2.41523
2.39754
2.38002
2.36281
2.34599
2.32995
2.31466
2.30056
2.28759
2.2763
2.2664
2.25849
2.25194
2.24732
2.24356
2.24122
2.23889
2.2372
2.23433
2.23138
2.22615
2.22027
2.21212
2.20297
2.1912
2.1798
2.16667
2.15487
2.14186
2.13107
2.1201
2.1106
2.11023
3.66658
3.41073
3.14801
2.89643
2.66032
2.45549
2.27671
2.14384
2.04422
2.02665
2.02003
2.0313
2.08728
2.14
2.14617
2.1233
2.09859
2.0651
2.01715
1.97327
1.93529
1.91692
1.89783
1.88983
1.89748
1.95177
2.06735
2.1451
2.16143
2.17616
2.1796
2.14997
2.11568
2.10144
2.1126
2.13275
2.15841
2.19575
2.24908
2.31524
2.38025
2.43766
2.48555
2.52375
2.55397
2.57747
2.59621
2.61012
2.62135
2.6287
2.63285
2.63593
2.63745
2.63688
2.63181
2.6237
2.61373
2.60264
2.59044
2.57713
2.56295
2.54773
2.53177
2.51515
2.49793
2.4805
2.4628
2.44521
2.42784
2.41086
2.39447
2.37881
2.36411
2.35043
2.33804
2.32705
2.31767
2.30988
2.30379
2.29901
2.29564
2.29286
2.29093
2.2884
2.28587
2.28141
2.27591
2.26794
2.25862
2.24655
2.23312
2.21808
2.20327
2.18701
2.17215
2.15611
2.14229
2.12852
2.11622
2.11248
3.69706
3.46403
3.22702
2.9924
2.77396
2.57074
2.39607
2.24789
2.13589
2.0674
2.05923
2.05022
2.07083
2.12197
2.17018
2.16932
2.15163
2.13153
2.099
2.05939
2.02728
2.01098
1.99737
2.00742
2.04482
2.17083
2.32186
2.38183
2.39067
2.39081
2.36328
2.29642
2.24046
2.20313
2.18674
2.19225
2.20638
2.22765
2.25678
2.29774
2.35489
2.41441
2.46966
2.51678
2.55414
2.58251
2.60397
2.61987
2.63145
2.63948
2.64385
2.64632
2.64784
2.64781
2.64511
2.63803
2.62863
2.61774
2.6057
2.59277
2.57893
2.56434
2.54905
2.53309
2.51665
2.49989
2.48296
2.46623
2.44976
2.43391
2.41883
2.40487
2.39205
2.38063
2.37067
2.36231
2.35554
2.3502
2.34627
2.34315
2.34103
2.33886
2.33695
2.33378
2.32969
2.32324
2.31505
2.30417
2.2912
2.2756
2.25959
2.24202
2.22478
2.20632
2.18897
2.17098
2.15472
2.13911
2.12447
2.11796
3.72836
3.51266
3.29307
3.07582
2.8696
2.67553
2.50277
2.34977
2.22832
2.12921
2.09018
2.08462
2.08214
2.09908
2.15671
2.19352
2.18879
2.17734
2.15678
2.13429
2.11653
2.10362
2.10223
2.12963
2.21911
2.44666
2.59974
2.61939
2.62128
2.60388
2.53033
2.44082
2.36618
2.31362
2.27809
2.26081
2.25856
2.26863
2.28299
2.30335
2.33251
2.37739
2.43112
2.4837
2.52996
2.56796
2.59682
2.61805
2.6329
2.64296
2.64922
2.65175
2.65343
2.65415
2.65322
2.64894
2.64105
2.63118
2.61998
2.60768
2.59452
2.58053
2.56593
2.55069
2.53512
2.51933
2.50356
2.48815
2.47319
2.45906
2.44609
2.43432
2.42408
2.41542
2.40842
2.40302
2.39905
2.39614
2.39401
2.39217
2.39046
2.38822
2.38513
2.38026
2.37341
2.36417
2.35245
2.33789
2.32149
2.30376
2.28546
2.26593
2.24659
2.22634
2.20706
2.1873
2.16899
2.15134
2.13487
2.12509
3.75985
3.55811
3.35191
3.15279
2.95333
2.77189
2.59859
2.44899
2.31594
2.21284
2.13
2.10712
2.10312
2.10473
2.12452
2.18608
2.2118
2.21093
2.20307
2.19195
2.18459
2.1864
2.21456
2.28571
2.48874
2.7532
2.8533
2.85501
2.8411
2.78727
2.67862
2.57733
2.49479
2.43022
2.38115
2.34646
2.32415
2.31215
2.31655
2.32455
2.3361
2.35584
2.38862
2.43375
2.48214
2.52742
2.56642
2.59683
2.61955
2.63503
2.64497
2.65054
2.65229
2.65353
2.65358
2.65189
2.64636
2.63821
2.62834
2.61731
2.60532
2.5926
2.57931
2.56547
2.55134
2.53701
2.52281
2.50905
2.496
2.48415
2.47361
2.46465
2.45736
2.45186
2.44793
2.44547
2.44405
2.44318
2.44244
2.44148
2.43996
2.43705
2.43213
2.42458
2.41453
2.4014
2.3858
2.36836
2.34998
2.33038
2.31017
2.28911
2.2681
2.24665
2.22583
2.20488
2.18514
2.16604
2.14827
2.13585
3.79518
3.60248
3.41009
3.2181
3.03442
2.85518
2.69203
2.53808
2.40704
2.2899
2.20297
2.13622
2.12407
2.12069
2.12077
2.15013
2.2053
2.23167
2.2384
2.2397
2.24823
2.27351
2.34627
2.5112
2.84007
3.05296
3.07366
3.06803
3.034
2.93421
2.81207
2.70644
2.6193
2.54737
2.48818
2.44023
2.40206
2.37437
2.35609
2.34859
2.35267
2.35899
2.37022
2.39215
2.4296
2.47313
2.51753
2.55827
2.59069
2.61549
2.63235
2.64295
2.64844
2.65022
2.65138
2.6513
2.64931
2.64355
2.63543
2.62584
2.61513
2.60375
2.59175
2.57953
2.56714
2.55497
2.54307
2.53193
2.52175
2.51297
2.50573
2.50006
2.49629
2.494
2.49292
2.49307
2.49329
2.49348
2.49346
2.49266
2.49072
2.48573
2.47801
2.46677
2.45275
2.43598
2.41814
2.39859
2.37829
2.35679
2.33493
2.31242
2.29001
2.26736
2.2453
2.22326
2.20237
2.18206
2.16327
2.14878
3.83656
3.64901
3.46732
3.28412
3.10745
2.93671
2.77469
2.62615
2.48943
2.37106
2.27159
2.1908
2.14557
2.14087
2.13816
2.14181
2.17408
2.22836
2.25874
2.28088
2.31334
2.37898
2.52071
2.8734
3.18678
3.28372
3.28015
3.25546
3.18027
3.05157
2.93133
2.82788
2.73934
2.66239
2.59555
2.53727
2.4873
2.4458
2.41227
2.38799
2.37358
2.37166
2.37345
2.37933
2.39182
2.41797
2.45798
2.50136
2.5432
2.57887
2.60687
2.62571
2.63765
2.6442
2.64621
2.64768
2.64818
2.64689
2.64162
2.63418
2.62543
2.61559
2.60538
2.59486
2.58465
2.57477
2.56563
2.55746
2.5508
2.54543
2.54195
2.53982
2.54005
2.54069
2.54195
2.54459
2.5452
2.54552
2.54548
2.54374
2.53974
2.53107
2.51906
2.50369
2.48663
2.46757
2.44743
2.42568
2.40339
2.38015
2.35687
2.33314
2.30977
2.28622
2.26341
2.24063
2.219
2.19788
2.17841
2.1622
3.88934
3.70154
3.52329
3.34852
3.176
3.01333
2.85387
2.70925
2.57061
2.45134
2.34209
2.25756
2.18177
2.15826
2.15563
2.15446
2.16767
2.20982
2.2693
2.3227
2.38781
2.52456
2.83682
3.26299
3.46647
3.46674
3.45103
3.40037
3.27672
3.15196
3.04033
2.94114
2.85287
2.77272
2.7003
2.63427
2.57547
2.52345
2.47843
2.44132
2.41314
2.39258
2.38707
2.38255
2.38697
2.39537
2.411
2.4433
2.4832
2.52549
2.56339
2.59393
2.61648
2.63103
2.63949
2.6432
2.64483
2.64557
2.6447
2.64052
2.63447
2.62684
2.61877
2.61071
2.60297
2.59615
2.59006
2.58609
2.58302
2.58198
2.58242
2.58367
2.58639
2.59072
2.5948
2.5967
2.59722
2.59716
2.59581
2.59148
2.58263
2.56929
2.5538
2.53564
2.51625
2.49459
2.47234
2.44853
2.42472
2.39998
2.37564
2.35085
2.32667
2.30241
2.27895
2.25566
2.23349
2.21182
2.19196
2.17454
3.95514
3.76104
3.5807
3.41152
3.24499
3.08309
2.93176
2.78504
2.65201
2.52629
2.41864
2.32045
2.24576
2.18467
2.17613
2.17505
2.18018
2.20873
2.28181
2.36434
2.4894
2.74543
3.25912
3.58544
3.63967
3.62875
3.58956
3.48892
3.36256
3.2465
3.14228
3.04723
2.95915
2.87713
2.8002
2.72889
2.66364
2.60412
2.55181
2.50561
2.46676
2.43527
2.41262
2.40045
2.39379
2.39115
2.39723
2.40799
2.42866
2.46518
2.50446
2.54336
2.57716
2.60348
2.62166
2.63252
2.63897
2.64137
2.64249
2.64282
2.64143
2.63677
2.63176
2.62673
2.62215
2.61899
2.61694
2.61756
2.61854
2.6206
2.62475
2.63086
2.63695
2.64196
2.64511
2.64543
2.64513
2.64345
2.63888
2.62893
2.61541
2.59899
2.58084
2.56016
2.53839
2.51479
2.49073
2.46557
2.44043
2.41475
2.38949
2.36402
2.33929
2.31455
2.29083
2.26721
2.24491
2.22302
2.20309
2.18508
4.02451
3.82174
3.6419
3.47206
3.31199
3.1533
3.00473
2.86002
2.72832
2.60161
2.49113
2.38926
2.30823
2.23332
2.20639
2.20382
2.21018
2.23481
2.305
2.42579
2.64424
3.14606
3.63125
3.78703
3.78033
3.75118
3.67496
3.55508
3.43913
3.33337
3.23529
3.14411
3.05668
2.97398
2.89546
2.82248
2.75391
2.6906
2.63283
2.57987
2.53359
2.49317
2.45947
2.43302
2.41622
2.40515
2.39664
2.39991
2.40657
2.41878
2.44366
2.48014
2.5197
2.55583
2.58573
2.60746
2.62263
2.63122
2.63657
2.64
2.64083
2.64176
2.64206
2.64115
2.64149
2.64221
2.64394
2.64761
2.65422
2.66182
2.66962
2.6782
2.68447
2.68874
2.68871
2.68799
2.68614
2.68091
2.67022
2.65625
2.63963
2.62046
2.59961
2.57693
2.55328
2.52854
2.50335
2.47756
2.45178
2.42572
2.40019
2.37453
2.34986
2.32507
2.30161
2.27806
2.25608
2.23432
2.21472
2.19663
4.12638
3.89897
3.70834
3.53695
3.37739
3.22348
3.07646
2.93468
2.80268
2.67865
2.56331
2.46077
2.3723
2.29675
2.25308
2.24928
2.25572
2.28626
2.36187
2.53833
2.91321
3.55177
3.86687
3.88276
3.86932
3.8284
3.72464
3.61565
3.51216
3.41675
3.32536
3.23816
3.15357
3.07278
2.9947
2.92091
2.84975
2.78388
2.7208
2.66371
2.60994
2.56241
2.51946
2.48301
2.45204
2.42977
2.41366
2.40213
2.39471
2.39949
2.40754
2.42301
2.45551
2.49097
2.52808
2.56102
2.58774
2.60771
2.62065
2.63057
2.63714
2.64286
2.64818
2.65312
2.6583
2.66506
2.67253
2.68114
2.69123
2.70229
2.71307
2.72138
2.72746
2.72763
2.72707
2.72518
2.72005
2.70922
2.69559
2.67831
2.65916
2.63729
2.61458
2.58987
2.56515
2.53898
2.51333
2.48664
2.46081
2.43434
2.40895
2.3833
2.35884
2.33438
2.31124
2.28829
2.26677
2.24571
2.22656
2.20902
4.18423
3.97994
3.77868
3.6045
3.44407
3.29274
3.14686
3.0095
2.87398
2.75414
2.63625
2.53306
2.4432
2.36271
2.33162
2.32888
2.341
2.38791
2.4956
2.74794
3.33742
3.81378
3.96837
3.96426
3.94276
3.88813
3.79606
3.7004
3.60872
3.5192
3.43348
3.34829
3.26633
3.18487
3.10707
3.0304
2.95738
2.88584
2.8181
2.75348
2.69389
2.6383
2.58772
2.54186
2.50123
2.46621
2.43761
2.41845
2.40168
2.38903
2.39047
2.39539
2.40505
2.42564
2.4591
2.49718
2.53418
2.56602
2.5921
2.61235
2.62832
2.64181
2.65409
2.66605
2.678
2.69033
2.70359
2.71713
2.73106
2.74296
2.75472
2.76168
2.76215
2.76211
2.76067
2.75507
2.74486
2.73079
2.7138
2.69392
2.67243
2.64891
2.62458
2.59891
2.57305
2.54646
2.52011
2.49341
2.46729
2.44106
2.41579
2.39059
2.36662
2.34272
2.32013
2.29762
2.27661
2.25591
2.2373
2.22014
4.1998
4.08501
3.86646
3.6792
3.51326
3.36423
3.21612
3.08363
2.94816
2.82754
2.71194
2.60679
2.52119
2.4428
2.43619
2.43943
2.46874
2.55368
2.73668
3.18794
3.63935
3.90765
4.01313
4.0136
4.00191
3.96936
3.89713
3.8087
3.72087
3.63432
3.54916
3.4636
3.37907
3.29521
3.21398
3.1332
3.05563
2.97945
2.90708
2.83786
2.77336
2.71231
2.65656
2.60336
2.55572
2.51146
2.47372
2.44106
2.41812
2.39812
2.38438
2.37698
2.38022
2.38724
2.40158
2.4327
2.46942
2.5093
2.54746
2.58168
2.61093
2.63633
2.65851
2.6792
2.69854
2.7178
2.73602
2.75356
2.76856
2.78285
2.79031
2.79211
2.79244
2.79087
2.78596
2.77576
2.76158
2.74382
2.72404
2.70192
2.67878
2.6539
2.62884
2.60254
2.57664
2.54989
2.52394
2.4975
2.47222
2.44665
2.42234
2.39779
2.37457
2.35127
2.32935
2.3076
2.28734
2.2677
2.24988
2.23425
4.19934
4.13152
3.96612
3.76503
3.58673
3.43704
3.28753
3.15584
3.02348
2.9028
2.78923
2.68911
2.60371
2.56778
2.56486
2.58407
2.64999
2.80631
3.19441
3.54986
3.78712
3.93571
4.01855
4.03435
4.03196
4.01802
3.98021
3.90653
3.82532
3.74185
3.65575
3.56887
3.48145
3.39676
3.31261
3.2314
3.15091
3.07297
2.99695
2.92475
2.85492
2.78982
2.72689
2.66878
2.61382
2.56363
2.51822
2.47771
2.44352
2.41566
2.39523
2.37786
2.36701
2.36883
2.37385
2.38457
2.40695
2.44423
2.48866
2.535
2.57986
2.62056
2.65686
2.68907
2.71793
2.74364
2.76665
2.78641
2.8025
2.81253
2.81702
2.81771
2.8165
2.81241
2.80368
2.78923
2.77184
2.75192
2.73061
2.70725
2.68335
2.65792
2.63258
2.60603
2.58011
2.55353
2.52803
2.50219
2.47748
2.45256
2.42879
2.40492
2.38229
2.35967
2.3385
2.31753
2.29826
2.27977
2.26307
2.24936
4.17431
4.14159
4.05103
3.85501
3.66642
3.51056
3.3616
3.22735
3.09875
2.97968
2.87227
2.77832
2.72426
2.71768
2.73101
2.78733
2.93011
3.28979
3.60369
3.77355
3.8596
3.92911
3.98691
4.0271
4.03997
4.03879
4.02759
3.99643
3.93017
3.84926
3.76043
3.67052
3.58049
3.49335
3.4075
3.32338
3.24057
3.15982
3.08098
3.00542
2.93245
2.86294
2.79684
2.73392
2.67501
2.61975
2.56839
2.52208
2.47956
2.44372
2.41264
2.39099
2.37272
2.36167
2.36284
2.36674
2.37589
2.39489
2.43074
2.48125
2.53693
2.59337
2.64631
2.6942
2.73499
2.76844
2.79623
2.81537
2.83103
2.83868
2.83899
2.8379
2.83472
2.82623
2.81224
2.7947
2.77555
2.75404
2.73161
2.70738
2.68314
2.65733
2.63203
2.60571
2.58055
2.5547
2.53012
2.505
2.48115
2.45689
2.43396
2.41086
2.38913
2.36755
2.34743
2.32786
2.3099
2.29336
2.27816
2.26736
4.1235
4.11751
4.07393
3.96163
3.76173
3.59092
3.43893
3.30277
3.17604
3.0626
2.96415
2.89999
2.89006
2.90041
2.95199
3.09406
3.44881
3.74423
3.8681
3.9066
3.91359
3.92582
3.94941
3.99231
4.03387
4.05496
4.0553
4.04593
4.01666
3.9521
3.86456
3.7708
3.67754
3.58634
3.49759
3.41105
3.32702
3.244
3.16457
3.08553
3.0106
2.93692
2.86689
2.80017
2.73644
2.67743
2.62182
2.57048
2.52409
2.48112
2.44506
2.41313
2.38977
2.37352
2.36605
2.36802
2.37334
2.38365
2.40327
2.4409
2.4895
2.55085
2.61535
2.67652
2.73147
2.7757
2.80943
2.83329
2.8489
2.85073
2.85068
2.84913
2.8427
2.82896
2.81282
2.79441
2.77451
2.7525
2.73005
2.706
2.68198
2.65653
2.6319
2.60631
2.58199
2.55687
2.53305
2.50859
2.48538
2.46184
2.43956
2.41733
2.39648
2.37601
2.35719
2.33915
2.323
2.3088
2.2956
2.28798
3.904
4.08986
4.07306
4.01189
3.86073
3.6779
3.51971
3.38229
3.26074
3.1566
3.08822
3.07652
3.08638
3.14105
3.28983
3.65671
3.93884
4.02446
4.02787
4.01273
3.96776
3.93786
3.94317
3.96104
3.9984
4.05157
4.0729
4.07257
4.06236
4.02954
3.96037
3.87022
3.77444
3.67985
3.58647
3.49669
3.40946
3.32465
3.24238
3.16203
3.0839
3.00846
2.93509
2.86596
2.79896
2.7372
2.67807
2.62359
2.5731
2.52624
2.48515
2.44844
2.41875
2.39675
2.3806
2.38323
2.38596
2.39347
2.40789