/*--------------------------------*- C++ -*----------------------------------*\
  =========                 |
  \\      /  F ield         | OpenFOAM: The Open Source CFD Toolbox
   \\    /   O peration     | Website:  https://openfoam.org
    \\  /    A nd           | Version:  13
     \\/     M anipulation  |
\*---------------------------------------------------------------------------*/
FoamFile
{
    format      ascii;
    class       volVectorField;
    location    "5";
    object      U;
}
// * * * * * * * * * * * * * * * * * * * * * * * * * * * * * * * * * * * * * //

dimensions      [0 1 -1 0 0 0 0];

internalField   nonuniform List<vector> 
5250
(
(3 3.05808e-08 0)
(2.99999 1.86914e-08 0)
(2.99997 4.57775e-07 0)
(2.99991 1.69592e-07 0)
(2.99978 3.3382e-06 0)
(2.99945 7.06224e-07 0)
(2.99867 2.22203e-05 0)
(2.99668 3.83994e-06 0)
(2.99186 0.000126678 0)
(2.97957 9.52706e-05 0)
(2.94794 0.000591835 0)
(2.86108 0.00110726 0)
(2.60967 0.00350319 0)
(1.87204 0.00970256 0)
(0.869694 0.0264901 0)
(0.443185 0.0243676 0)
(0.53516 0.0244318 0)
(0.560223 0.0262801 0)
(0.505617 0.0281426 0)
(0.41496 0.0300345 0)
(0.330137 0.0322619 0)
(0.261471 0.0348452 0)
(0.192655 0.0375205 0)
(0.11497 0.0405586 0)
(0.0495581 0.0446568 0)
(3 4.41743e-08 0)
(2.99999 2.0068e-07 0)
(2.99997 9.35507e-07 0)
(2.99991 1.98457e-06 0)
(2.99978 6.70513e-06 0)
(2.99947 1.39576e-05 0)
(2.99868 3.96088e-05 0)
(2.99677 9.08614e-05 0)
(2.99193 0.00023614 0)
(2.97996 0.000573374 0)
(2.94879 0.00146975 0)
(2.86349 0.00381853 0)
(2.61681 0.0105306 0)
(1.89053 0.0302842 0)
(0.880332 0.0807289 0)
(0.43978 0.0703733 0)
(0.535159 0.0673019 0)
(0.561429 0.0702985 0)
(0.506532 0.073354 0)
(0.415912 0.0765594 0)
(0.331077 0.0801241 0)
(0.26183 0.0839855 0)
(0.191983 0.0874899 0)
(0.112955 0.0907635 0)
(0.0468937 0.0936029 0)
(3 5.17067e-08 0)
(2.99999 4.28025e-07 0)
(2.99997 1.22565e-06 0)
(2.99992 4.20285e-06 0)
(2.99979 9.12415e-06 0)
(2.99948 2.79093e-05 0)
(2.99874 5.76142e-05 0)
(2.99684 0.000170773 0)
(2.99226 0.000366455 0)
(2.9806 0.00101416 0)
(2.95063 0.00240963 0)
(2.86869 0.0064847 0)
(2.63168 0.0177395 0)
(1.93228 0.0513002 0)
(0.905788 0.138521 0)
(0.437154 0.119584 0)
(0.539052 0.113106 0)
(0.568076 0.118273 0)
(0.513024 0.124054 0)
(0.422692 0.130725 0)
(0.337849 0.137492 0)
(0.267799 0.14454 0)
(0.196545 0.151201 0)
(0.115601 0.157059 0)
(0.0471519 0.160631 0)
(3 8.09064e-08 0)
(2.99999 5.56255e-07 0)
(2.99997 1.73979e-06 0)
(2.99992 5.45767e-06 0)
(2.9998 1.31354e-05 0)
(2.99951 3.55208e-05 0)
(2.99879 8.56435e-05 0)
(2.99702 0.000214678 0)
(2.99264 0.000534865 0)
(2.98166 0.00132078 0)
(2.95335 0.00335474 0)
(2.87627 0.00874191 0)
(2.65444 0.0241715 0)
(1.99564 0.0698445 0)
(0.946854 0.192435 0)
(0.437364 0.168216 0)
(0.547919 0.158443 0)
(0.581194 0.165605 0)
(0.526229 0.174246 0)
(0.436276 0.184976 0)
(0.35096 0.195423 0)
(0.279756 0.206209 0)
(0.206567 0.216811 0)
(0.122404 0.226104 0)
(0.0496258 0.23095 0)
(3 9.47086e-08 0)
(2.99999 6.35528e-07 0)
(2.99997 2.14272e-06 0)
(2.99993 6.21166e-06 0)
(2.99982 1.59861e-05 0)
(2.99954 4.19397e-05 0)
(2.99889 9.99457e-05 0)
(2.99722 0.000265138 0)
(2.99318 0.000615759 0)
(2.98295 0.0016328 0)
(2.95683 0.00395982 0)
(2.88604 0.0105715 0)
(2.68314 0.0289109 0)
(2.07926 0.0840424 0)
(1.00484 0.23818 0)
(0.446348 0.218155 0)
(0.563677 0.206196 0)
(0.601692 0.213952 0)
(0.547029 0.224513 0)
(0.457443 0.239085 0)
(0.37105 0.253494 0)
(0.298121 0.268567 0)
(0.222263 0.283881 0)
(0.133485 0.297708 0)
(0.0542708 0.304856 0)
(3 1.20907e-07 0)
(2.99999 5.92045e-07 0)
(2.99997 2.52108e-06 0)
(2.99993 5.79773e-06 0)
(2.99983 1.87016e-05 0)
(2.99958 3.94616e-05 0)
(2.99898 0.000117769 0)
(2.99745 0.000251681 0)
(2.99378 0.000715395 0)
(2.98445 0.00162019 0)
(2.9608 0.00436283 0)
(2.89717 0.0109961 0)
(2.71617 0.0305969 0)
(2.17918 0.0882999 0)
(1.08688 0.257968 0)
(0.479223 0.263074 0)
(0.591828 0.256657 0)
(0.632063 0.264698 0)
(0.577692 0.276415 0)
(0.488507 0.294547 0)
(0.400231 0.313504 0)
(0.324729 0.333799 0)
(0.245302 0.355229 0)
(0.150229 0.375667 0)
(0.0618969 0.387485 0)
(3 1.09071e-07 0)
(2.99999 6.2646e-07 0)
(2.99998 2.28383e-06 0)
(2.99994 6.12563e-06 0)
(2.99985 1.69443e-05 0)
(2.99962 4.02278e-05 0)
(2.99906 0.000108407 0)
(2.99772 0.000245654 0)
(2.99432 0.000665024 0)
(2.98599 0.00152591 0)
(2.96464 0.00403291 0)
(2.908 0.0100839 0)
(2.74802 0.0276192 0)
(2.27642 0.0784777 0)
(1.18628 0.232412 0)
(0.528516 0.296159 0)
(0.62451 0.309207 0)
(0.664526 0.316894 0)
(0.613075 0.32943 0)
(0.527009 0.351533 0)
(0.438178 0.376188 0)
(0.360455 0.403054 0)
(0.277531 0.432563 0)
(0.175215 0.463049 0)
(0.0743905 0.484613 0)
(3 9.30168e-08 0)
(2.99999 6.07045e-07 0)
(2.99998 2.03092e-06 0)
(2.99994 5.88048e-06 0)
(2.99986 1.4959e-05 0)
(2.99966 3.87743e-05 0)
(2.99915 9.37797e-05 0)
(2.99792 0.000237751 0)
(2.99484 0.000572799 0)
(2.98725 0.00144219 0)
(2.96794 0.00354016 0)
(2.9168 0.00908249 0)
(2.77321 0.0241343 0)
(2.34907 0.0677236 0)
(1.28905 0.199665 0)
(0.574438 0.336629 0)
(0.639428 0.370277 0)
(0.679232 0.368809 0)
(0.640426 0.381495 0)
(0.564962 0.407941 0)
(0.480522 0.440294 0)
(0.403952 0.475973 0)
(0.320306 0.516596 0)
(0.212439 0.562558 0)
(0.0955897 0.605202 0)
(3 9.75846e-08 0)
(2.99999 5.60817e-07 0)
(2.99998 2.0667e-06 0)
(2.99995 5.5019e-06 0)
(2.99987 1.52405e-05 0)
(2.99969 3.68638e-05 0)
(2.99923 9.46676e-05 0)
(2.99811 0.000227296 0)
(2.99533 0.000573185 0)
(2.98847 0.00138407 0)
(2.971 0.00349158 0)
(2.92514 0.00878689 0)
(2.79657 0.0234063 0)
(2.41908 0.0653084 0)
(1.41853 0.192539 0)
(0.654736 0.38637 0)
(0.647438 0.41903 0)
(0.677688 0.415232 0)
(0.660761 0.431717 0)
(0.601373 0.461354 0)
(0.526378 0.502984 0)
(0.455248 0.549992 0)
(0.376341 0.605064 0)
(0.270416 0.676594 0)
(0.134098 0.764292 0)
(3 9.35221e-08 0)
(2.99999 5.95953e-07 0)
(2.99998 2.00639e-06 0)
(2.99995 5.84166e-06 0)
(2.99989 1.49855e-05 0)
(2.99972 3.83028e-05 0)
(2.99931 9.52722e-05 0)
(2.99832 0.000232713 0)
(2.99581 0.000583529 0)
(2.98969 0.00140971 0)
(2.9741 0.0035573 0)
(2.9334 0.00893597 0)
(2.82017 0.0236805 0)
(2.48894 0.066003 0)
(1.57234 0.193119 0)
(0.755303 0.434587 0)
(0.654739 0.451345 0)
(0.682835 0.453618 0)
(0.680784 0.476642 0)
(0.637418 0.510502 0)
(0.577025 0.56069 0)
(0.515921 0.619843 0)
(0.451936 0.69633 0)
(0.36641 0.812951 0)
(0.206789 1.02369 0)
(3 9.45352e-08 0)
(2.99999 6.03341e-07 0)
(2.99998 2.06849e-06 0)
(2.99996 5.88304e-06 0)
(2.9999 1.53894e-05 0)
(2.99976 3.89893e-05 0)
(2.99939 9.70341e-05 0)
(2.99852 0.000241241 0)
(2.99631 0.000593887 0)
(2.99094 0.00147551 0)
(2.97728 0.00366167 0)
(2.94189 0.00927524 0)
(2.84417 0.0243626 0)
(2.56004 0.0678037 0)
(1.74683 0.196851 0)
(0.874541 0.48293 0)
(0.66402 0.485536 0)
(0.695123 0.488259 0)
(0.706052 0.513207 0)
(0.676705 0.553126 0)
(0.632695 0.609091 0)
(0.590546 0.679769 0)
(0.561209 0.776728 0)
(0.560893 0.924959 0)
(0.602294 1.17544 0)
(3 9.39276e-08 0)
(2.99999 6.24747e-07 0)
(2.99999 2.06531e-06 0)
(2.99997 6.09357e-06 0)
(2.99991 1.54155e-05 0)
(2.99979 4.02549e-05 0)
(2.99948 9.80836e-05 0)
(2.99873 0.000248902 0)
(2.99684 0.000606914 0)
(2.99224 0.00152303 0)
(2.9806 0.00376696 0)
(2.95066 0.00954782 0)
(2.86896 0.0249504 0)
(2.63311 0.0691164 0)
(1.9429 0.200094 0)
(1.01634 0.526081 0)
(0.683974 0.523566 0)
(0.71623 0.524325 0)
(0.738404 0.544437 0)
(0.721785 0.58807 0)
(0.693937 0.647627 0)
(0.674774 0.726039 0)
(0.681892 0.831919 0)
(0.744587 0.977793 0)
(0.89904 1.16932 0)
(3 8.88682e-08 0)
(3 6.06928e-07 0)
(2.99999 2.00106e-06 0)
(2.99997 5.92542e-06 0)
(2.99993 1.49686e-05 0)
(2.99983 3.96061e-05 0)
(2.99956 9.44941e-05 0)
(2.99895 0.000248364 0)
(2.99737 0.00058088 0)
(2.99358 0.00153111 0)
(2.98396 0.0036378 0)
(2.95956 0.0094916 0)
(2.89389 0.0243024 0)
(2.7069 0.0673336 0)
(2.15491 0.194571 0)
(1.18927 0.544808 0)
(0.734853 0.565892 0)
(0.754353 0.570483 0)
(0.781171 0.578197 0)
(0.775946 0.618485 0)
(0.760899 0.678528 0)
(0.761819 0.756952 0)
(0.794925 0.857679 0)
(0.884625 0.980038 0)
(1.0618 1.10095 0)
(3 8.31176e-08 0)
(3 5.18531e-07 0)
(2.99999 1.82515e-06 0)
(2.99998 5.06403e-06 0)
(2.99994 1.35535e-05 0)
(2.99986 3.39553e-05 0)
(2.99965 8.48312e-05 0)
(2.99914 0.000211817 0)
(2.99791 0.000515652 0)
(2.99479 0.00129767 0)
(2.98723 0.00316756 0)
(2.96791 0.00800025 0)
(2.91725 0.0204783 0)
(2.7762 0.0553066 0)
(2.3658 0.157911 0)
(1.40937 0.466617 0)
(0.836206 0.589412 0)
(0.814422 0.613885 0)
(0.832424 0.620103 0)
(0.838943 0.650299 0)
(0.832846 0.704293 0)
(0.845214 0.775372 0)
(0.892007 0.861317 0)
(0.987994 0.956438 0)
(1.15588 1.03394 0)
(3 7.35494e-08 0)
(3 4.26718e-07 0)
(2.99999 1.55327e-06 0)
(2.99998 4.15204e-06 0)
(2.99995 1.14862e-05 0)
(2.99988 2.73061e-05 0)
(2.99971 7.23495e-05 0)
(2.9993 0.000166557 0)
(2.99827 0.000437911 0)
(2.99579 0.00100683 0)
(2.98955 0.0026194 0)
(2.97399 0.00620562 0)
(2.93325 0.0160782 0)
(2.82084 0.041696 0)
(2.49546 0.116127 0)
(1.6249 0.345173 0)
(0.934078 0.623435 0)
(0.855537 0.655901 0)
(0.872125 0.66764 0)
(0.891989 0.684513 0)
(0.899498 0.727287 0)
(0.920304 0.786869 0)
(0.97261 0.856105 0)
(1.06628 0.927665 0)
(1.21639 0.981067 0)
(3 5.95452e-08 0)
(3 3.84948e-07 0)
(2.99999 1.29477e-06 0)
(2.99998 3.75539e-06 0)
(2.99996 9.59396e-06 0)
(2.99991 2.46918e-05 0)
(2.99977 6.02363e-05 0)
(2.99944 0.000150903 0)
(2.99861 0.000366916 0)
(2.99661 0.00090994 0)
(2.99156 0.00222979 0)
(2.97912 0.00552602 0)
(2.94671 0.0138991 0)
(2.85839 0.0361913 0)
(2.60445 0.0996899 0)
(1.87895 0.29063 0)
(1.08381 0.665487 0)
(0.885755 0.691519 0)
(0.899059 0.70403 0)
(0.929968 0.712313 0)
(0.955202 0.745338 0)
(0.984716 0.794088 0)
(1.03905 0.849131 0)
(1.1274 0.902728 0)
(1.2591 0.941045 0)
(3 5.27699e-08 0)
(3 3.28661e-07 0)
(3 1.14844e-06 0)
(2.99999 3.22331e-06 0)
(2.99997 8.51826e-06 0)
(2.99993 2.1497e-05 0)
(2.99982 5.34679e-05 0)
(2.99956 0.000133137 0)
(2.99891 0.000326457 0)
(2.99734 0.000814445 0)
(2.99339 0.00199935 0)
(2.98372 0.00499955 0)
(2.95877 0.0125439 0)
(2.89203 0.0326112 0)
(2.70243 0.0893274 0)
(2.1444 0.258531 0)
(1.2786 0.680788 0)
(0.936138 0.723565 0)
(0.933562 0.732356 0)
(0.966209 0.735971 0)
(1.00465 0.757862 0)
(1.04096 0.797308 0)
(1.09508 0.841796 0)
(1.17682 0.882814 0)
(1.29194 0.910883 0)
(3 4.25801e-08 0)
(3 2.78732e-07 0)
(3 9.32082e-07 0)
(2.99999 2.72275e-06 0)
(2.99998 6.93041e-06 0)
(2.99994 1.79924e-05 0)
(2.99986 4.37342e-05 0)
(2.99967 0.000110305 0)
(2.99917 0.000267846 0)
(2.998 0.000668061 0)
(2.99505 0.00163653 0)
(2.9879 0.00406624 0)
(2.96972 0.0101396 0)
(2.92241 0.0259929 0)
(2.79208 0.0698914 0)
(2.41429 0.199486 0)
(1.54845 0.577264 0)
(1.04678 0.730695 0)
(0.993664 0.754968 0)
(1.01181 0.76373 0)
(1.05332 0.773497 0)
(1.0944 0.801664 0)
(1.14584 0.836366 0)
(1.21952 0.86783 0)
(1.31977 0.888483 0)
(3 3.27982e-08 0)
(3 2.21822e-07 0)
(3 7.25455e-07 0)
(2.99999 2.15499e-06 0)
(2.99998 5.3724e-06 0)
(2.99996 1.41391e-05 0)
(2.9999 3.3604e-05 0)
(2.99975 8.59693e-05 0)
(2.99937 0.000203417 0)
(2.99848 0.000513931 0)
(2.99623 0.00122521 0)
(2.9908 0.00306599 0)
(2.97704 0.00745858 0)
(2.94169 0.0188486 0)
(2.84526 0.0489431 0)
(2.56915 0.134788 0)
(1.81909 0.400731 0)
(1.1667 0.735896 0)
(1.04255 0.775834 0)
(1.05053 0.793094 0)
(1.09178 0.795494 0)
(1.13965 0.810669 0)
(1.19043 0.835143 0)
(1.2571 0.858327 0)
(1.34471 0.872993 0)
(3 2.65168e-08 0)
(3 1.75667e-07 0)
(3 5.87082e-07 0)
(2.99999 1.7108e-06 0)
(2.99999 4.35228e-06 0)
(2.99997 1.13131e-05 0)
(2.99992 2.71376e-05 0)
(2.99981 6.95872e-05 0)
(2.99953 0.000163922 0)
(2.99886 0.000420694 0)
(2.99718 0.000991194 0)
(2.9931 0.00253382 0)
(2.98286 0.00609179 0)
(2.9568 0.0155282 0)
(2.88685 0.0398036 0)
(2.68853 0.108868 0)
(2.11197 0.316852 0)
(1.34787 0.755147 0)
(1.09201 0.807569 0)
(1.08554 0.820368 0)
(1.12137 0.819056 0)
(1.17531 0.821164 0)
(1.22854 0.836276 0)
(1.29024 0.852757 0)
(1.36765 0.862762 0)
(3 2.15575e-08 0)
(3 1.34117e-07 0)
(3 4.70496e-07 0)
(3 1.30611e-06 0)
(2.99999 3.48239e-06 0)
(2.99998 8.66669e-06 0)
(2.99994 2.1694e-05 0)
(2.99986 5.35833e-05 0)
(2.99966 0.000130326 0)
(2.99917 0.000326628 0)
(2.99799 0.000782906 0)
(2.99505 0.00198278 0)
(2.98786 0.00477106 0)
(2.96976 0.0121257 0)
(2.92265 0.0306615 0)
(2.79342 0.0827109 0)
(2.4182 0.236112 0)
(1.62371 0.653477 0)
(1.19636 0.809962 0)
(1.14127 0.835099 0)
(1.15843 0.841381 0)
(1.20881 0.835937 0)
(1.26439 0.840886 0)
(1.32175 0.85063 0)
(1.39015 0.856585 0)
(3 1.66215e-08 0)
(3 9.93416e-08 0)
(3 3.5775e-07 0)
(3 9.64836e-07 0)
(2.99999 2.63172e-06 0)
(2.99998 6.37681e-06 0)
(2.99996 1.63359e-05 0)
(2.9999 3.90969e-05 0)
(2.99976 9.77507e-05 0)
(2.9994 0.000235956 0)
(2.99856 0.000580729 0)
(2.99642 0.00142009 0)
(2.9913 0.0034675 0)
(2.97837 0.00858354 0)
(2.94538 0.0214158 0)
(2.85627 0.0558078 0)
(2.60287 0.153326 0)
(1.92265 0.451619 0)
(1.32714 0.797586 0)
(1.1947 0.845541 0)
(1.19535 0.864061 0)
(1.23678 0.85871 0)
(1.29413 0.851568 0)
(1.3503 0.852813 0)
(1.41221 0.854488 0)
(3 1.23201e-08 0)
(3 7.58461e-08 0)
(3 2.64847e-07 0)
(3 7.38248e-07 0)
(3 1.95315e-06 0)
(2.99999 4.8567e-06 0)
(2.99997 1.22103e-05 0)
(2.99993 2.95688e-05 0)
(2.99983 7.39501e-05 0)
(2.99957 0.000177177 0)
(2.99897 0.000443686 0)
(2.99746 0.00106533 0)
(2.99383 0.00266152 0)
(2.9847 0.00648459 0)
(2.96176 0.0162544 0)
(2.90083 0.0416193 0)
(2.73064 0.112351 0)
(2.2362 0.326288 0)
(1.52858 0.773109 0)
(1.26044 0.863454 0)
(1.23662 0.882422 0)
(1.26069 0.881277 0)
(1.31488 0.867753 0)
(1.37396 0.860506 0)
(1.43303 0.857184 0)
(3 9.00425e-09 0)
(3 5.65509e-08 0)
(3 1.94164e-07 0)
(3 5.50242e-07 0)
(3 1.43651e-06 0)
(2.99999 3.60316e-06 0)
(2.99998 8.99769e-06 0)
(2.99995 2.18774e-05 0)
(2.99988 5.44177e-05 0)
(2.99971 0.000130764 0)
(2.9993 0.000327071 0)
(2.99827 0.000782058 0)
(2.99582 0.00196079 0)
(2.98969 0.00474031 0)
(2.97461 0.0118665 0)
(2.93563 0.0298921 0)
(2.83058 0.0792228 0)
(2.52811 0.223869 0)
(1.82607 0.622368 0)
(1.37854 0.854289 0)
(1.29394 0.887269 0)
(1.29695 0.897972 0)
(1.33873 0.886292 0)
(1.39614 0.87139 0)
(1.45301 0.863173 0)
(3 6.40745e-09 0)
(3 4.09041e-08 0)
(3 1.3813e-07 0)
(3 3.97413e-07 0)
(3 1.01916e-06 0)
(2.99999 2.59042e-06 0)
(2.99999 6.38643e-06 0)
(2.99997 1.56052e-05 0)
(2.99992 3.85855e-05 0)
(2.9998 9.25205e-05 0)
(2.99952 0.000231018 0)
(2.99882 0.000547998 0)
(2.99713 0.00137846 0)
(2.99294 0.00327709 0)
(2.98269 0.00823576 0)
(2.95658 0.0201819 0)
(2.88736 0.0523167 0)
(2.69371 0.141167 0)
(2.14962 0.412545 0)
(1.54109 0.833103 0)
(1.35046 0.89988 0)
(1.33406 0.913242 0)
(1.35931 0.905744 0)
(1.41327 0.885777 0)
(1.47119 0.871475 0)
(3 4.37083e-09 0)
(3 2.92468e-08 0)
(3 9.58812e-08 0)
(3 2.83851e-07 0)
(3 7.09192e-07 0)
(3 1.84881e-06 0)
(2.99999 4.42924e-06 0)
(2.99998 1.1156e-05 0)
(2.99995 2.6695e-05 0)
(2.99987 6.61053e-05 0)
(2.99968 0.00016008 0)
(2.99922 0.000390764 0)
(2.99809 0.000958294 0)
(2.9954 0.0023208 0)
(2.98869 0.00575851 0)
(2.97216 0.0140931 0)
(2.92935 0.0359307 0)
(2.81415 0.0948294 0)
(2.48046 0.271487 0)
(1.81374 0.69882 0)
(1.4508 0.882508 0)
(1.38662 0.912974 0)
(1.39096 0.919777 0)
(1.43272 0.903528 0)
(1.48879 0.881407 0)
(3 3.05755e-09 0)
(3 1.9662e-08 0)
(3 6.7162e-08 0)
(3 1.90741e-07 0)
(3 4.93919e-07 0)
(3 1.25186e-06 0)
(2.99999 3.03828e-06 0)
(2.99999 7.60611e-06 0)
(2.99996 1.8038e-05 0)
(2.99991 4.5332e-05 0)
(2.99979 0.000106667 0)
(2.99948 0.000268062 0)
(2.99874 0.000631914 0)
(2.99694 0.00158303 0)
(2.9925 0.00376829 0)
(2.98165 0.00940783 0)
(2.95403 0.0230694 0)
(2.88101 0.0597344 0)
(2.67638 0.161931 0)
(2.12725 0.463577 0)
(1.59237 0.848163 0)
(1.44101 0.915011 0)
(1.42594 0.929899 0)
(1.44979 0.92203 0)
(1.501 0.897082 0)
(3 2.14689e-09 0)
(3 1.31913e-08 0)
(3 4.62424e-08 0)
(3 1.27978e-07 0)
(3 3.39707e-07 0)
(3 8.38904e-07 0)
(3 2.09755e-06 0)
(2.99999 5.07678e-06 0)
(2.99998 1.24928e-05 0)
(2.99994 3.02326e-05 0)
(2.99986 7.37557e-05 0)
(2.99966 0.000179365 0)
(2.99919 0.000435563 0)
(2.99801 0.00106491 0)
(2.9952 0.00258198 0)
(2.98821 0.00635269 0)
(2.97101 0.0156149 0)
(2.9264 0.0395411 0)
(2.80615 0.104459 0)
(2.45916 0.298326 0)
(1.84081 0.7293 0)
(1.52765 0.899167 0)
(1.47158 0.92994 0)
(1.47584 0.936271 0)
(1.51503 0.918211 0)
(3 1.43434e-09 0)
(3 8.90185e-09 0)
(3 3.08087e-08 0)
(3 8.63609e-08 0)
(3 2.25696e-07 0)
(3 5.63734e-07 0)
(3 1.39877e-06 0)
(2.99999 3.38885e-06 0)
(2.99998 8.3581e-06 0)
(2.99996 2.00375e-05 0)
(2.99991 4.93826e-05 0)
(2.99978 0.000118394 0)
(2.99947 0.000290944 0)
(2.99873 0.000699697 0)
(2.9969 0.00171661 0)
(2.99251 0.00416295 0)
(2.98159 0.0102293 0)
(2.95412 0.0253969 0)
(2.88174 0.0652997 0)
(2.6784 0.178453 0)
(2.15242 0.500751 0)
(1.66613 0.862915 0)
(1.52617 0.931149 0)
(1.50887 0.946023 0)
(1.52823 0.93816 0)
(3 9.54375e-10 0)
(3 5.84756e-09 0)
(3 2.05946e-08 0)
(3 5.66258e-08 0)
(3 1.50749e-07 0)
(3 3.70359e-07 0)
(3 9.27229e-07 0)
(3 2.23856e-06 0)
(2.99999 5.49328e-06 0)
(2.99998 1.32854e-05 0)
(2.99994 3.22635e-05 0)
(2.99986 7.85746e-05 0)
(2.99967 0.000189189 0)
(2.9992 0.000463926 0)
(2.99809 0.00111245 0)
(2.9953 0.00274202 0)
(2.98866 0.00661135 0)
(2.97199 0.016396 0)
(2.92949 0.0411007 0)
(2.81529 0.108528 0)
(2.488 0.308569 0)
(1.91187 0.731913 0)
(1.61268 0.909258 0)
(1.55362 0.942791 0)
(1.55306 0.949674 0)
(3 6.07449e-10 0)
(3 3.87117e-09 0)
(3 1.30872e-08 0)
(3 3.7489e-08 0)
(3 9.62012e-08 0)
(3 2.42733e-07 0)
(3 5.96304e-07 0)
(3 1.44956e-06 0)
(2.99999 3.55722e-06 0)
(2.99999 8.49139e-06 0)
(2.99997 2.10611e-05 0)
(2.99991 4.96348e-05 0)
(2.9998 0.000124001 0)
(2.9995 0.00029094 0)
(2.9988 0.000728697 0)
(2.99709 0.00171273 0)
(2.99295 0.00428707 0)
(2.98276 0.0102471 0)
(2.95723 0.0257342 0)
(2.89036 0.0653672 0)
(2.70408 0.177812 0)
(2.22206 0.49241 0)
(1.75468 0.865255 0)
(1.6079 0.94036 0)
(1.58551 0.956039 0)
(3 3.91363e-10 0)
(3 2.47088e-09 0)
(3 8.43689e-09 0)
(3 2.38836e-08 0)
(3 6.18691e-08 0)
(3 1.54666e-07 0)
(3 3.81955e-07 0)
(3 9.23459e-07 0)
(3 2.26572e-06 0)
(2.99999 5.4214e-06 0)
(2.99998 1.33201e-05 0)
(2.99995 3.17325e-05 0)
(2.99987 7.79341e-05 0)
(2.9997 0.000185955 0)
(2.99927 0.000455831 0)
(2.99827 0.00109067 0)
(2.99577 0.00267221 0)
(2.98983 0.0064477 0)
(2.97504 0.015903 0)
(2.93777 0.0396637 0)
(2.83902 0.103974 0)
(2.55788 0.293 0)
(2.01397 0.702944 0)
(1.70171 0.904448 0)
(1.63331 0.946544 0)
(3 2.4536e-10 0)
(3 1.5352e-09 0)
(3 5.32689e-09 0)
(3 1.48239e-08 0)
(3 3.88728e-08 0)
(3 9.6352e-08 0)
(3 2.37377e-07 0)
(3 5.77897e-07 0)
(3 1.39324e-06 0)
(2.99999 3.40706e-06 0)
(2.99999 8.09343e-06 0)
(2.99997 1.99457e-05 0)
(2.99992 4.69706e-05 0)
(2.99982 0.000116416 0)
(2.99956 0.0002727 0)
(2.99893 0.000677591 0)
(2.99742 0.00158926 0)
(2.99377 0.00394515 0)
(2.98479 0.00937748 0)
(2.96252 0.0233499 0)
(2.90475 0.0584804 0)
(2.74596 0.15675 0)
(2.32441 0.431341 0)
(1.85448 0.827932 0)
(1.68841 0.930579 0)
(3 1.54329e-10 0)
(3 9.49922e-10 0)
(3 3.31354e-09 0)
(3 9.18483e-09 0)
(3 2.41788e-08 0)
(3 5.95454e-08 0)
(3 1.48251e-07 0)
(3 3.55338e-07 0)
(3 8.73357e-07 0)
(3 2.08241e-06 0)
(2.99999 5.09063e-06 0)
(2.99998 1.21642e-05 0)
(2.99995 2.95965e-05 0)
(2.99989 7.10321e-05 0)
(2.99974 0.000171839 0)
(2.99936 0.000414957 0)
(2.99849 0.000999986 0)
(2.99631 0.00242879 0)
(2.99117 0.00586815 0)
(2.97838 0.014372 0)
(2.94646 0.0356819 0)
(2.86265 0.092275 0)
(2.62537 0.255531 0)
(2.12424 0.642201 0)
(1.7914 0.890636 0)
(3 9.18034e-11 0)
(3 5.93697e-10 0)
(3 1.98866e-09 0)
(3 5.72932e-09 0)
(3 1.45628e-08 0)
(3 3.68951e-08 0)
(3 8.94092e-08 0)
(3 2.18785e-07 0)
(3 5.27633e-07 0)
(3 1.27083e-06 0)
(3 3.08482e-06 0)
(2.99999 7.34893e-06 0)
(2.99997 1.79683e-05 0)
(2.99993 4.24851e-05 0)
(2.99984 0.00010441 0)
(2.99962 0.000245913 0)
(2.99909 0.000605367 0)
(2.99783 0.00142834 0)
(2.99473 0.00351226 0)
(2.98728 0.00838683 0)
(2.96876 0.0206914 0)
(2.92152 0.0516395 0)
(2.79409 0.136044 0)
(2.44569 0.377764 0)
(1.97775 0.778328 0)
(3 5.79108e-11 0)
(3 3.55184e-10 0)
(3 1.23831e-09 0)
(3 3.43072e-09 0)
(3 9.01283e-09 0)
(3 2.21498e-08 0)
(3 5.52128e-08 0)
(3 1.31476e-07 0)
(3 3.24942e-07 0)
(3 7.6588e-07 0)
(3 1.88946e-06 0)
(2.99999 4.45336e-06 0)
(2.99998 1.09417e-05 0)
(2.99996 2.58959e-05 0)
(2.99991 6.32406e-05 0)
(2.99978 0.000150884 0)
(2.99947 0.000365178 0)
(2.99874 0.00087982 0)
(2.99697 0.00211591 0)
(2.99267 0.00515058 0)
(2.98224 0.0124547 0)
(2.9562 0.0308506 0)
(2.88874 0.0785575 0)
(2.70065 0.213714 0)
(2.26217 0.556569 0)
(3 3.32232e-11 0)
(3 2.15906e-10 0)
(3 7.26405e-10 0)
(3 2.08034e-09 0)
(3 5.2923e-09 0)
(3 1.34374e-08 0)
(3 3.2193e-08 0)
(3 7.98834e-08 0)
(3 1.88452e-07 0)
(3 4.65166e-07 0)
(3 1.09345e-06 0)
(3 2.68944e-06 0)
(2.99999 6.34433e-06 0)
(2.99998 1.54949e-05 0)
(2.99995 3.68123e-05 0)
(2.99988 8.91756e-05 0)
(2.9997 0.000213747 0)
(2.99929 0.000513074 0)
(2.99829 0.00124151 0)
(2.99589 0.00296648 0)
(2.99012 0.0072356 0)
(2.97604 0.0174747 0)
(2.94073 0.0436785 0)
(2.84811 0.112978 0)
(2.59062 0.313477 0)
(3 1.99398e-11 0)
(3 1.25818e-10 0)
(3 4.33179e-10 0)
(3 1.21273e-09 0)
(3 3.14727e-09 0)
(3 7.83424e-09 0)
(3 1.90682e-08 0)
(3 4.65618e-08 0)
(3 1.10884e-07 0)
(3 2.71391e-07 0)
(3 6.38486e-07 0)
(3 1.56825e-06 0)
(2.99999 3.67649e-06 0)
(2.99999 9.0238e-06 0)
(2.99997 2.11704e-05 0)
(2.99993 5.17252e-05 0)
(2.99983 0.000122001 0)
(2.99959 0.000296033 0)
(2.99901 0.000703248 0)
(2.99766 0.00169251 0)
(2.99432 0.00406618 0)
(2.98638 0.00976648 0)
(2.96659 0.0238519 0)
(2.91645 0.0593935 0)
(2.78049 0.156999 0)
(3 1.19454e-11 0)
(3 7.28243e-11 0)
(3 2.55848e-10 0)
(3 7.01691e-10 0)
(3 1.85715e-09 0)
(3 4.52412e-09 0)
(3 1.12723e-08 0)
(3 2.6798e-08 0)
(3 6.55314e-08 0)
(3 1.55881e-07 0)
(3 3.76609e-07 0)
(3 9.021e-07 0)
(3 2.15721e-06 0)
(2.99999 5.21179e-06 0)
(2.99998 1.23519e-05 0)
(2.99996 3.00894e-05 0)
(2.9999 7.07712e-05 0)
(2.99977 0.000173267 0)
(2.99945 0.0004068 0)
(2.9987 0.000997016 0)
(2.99684 0.00234897 0)
(2.99248 0.00575606 0)
(2.98174 0.0137844 0)
(2.95529 0.0341194 0)
(2.88701 0.0865136 0)
(3 6.83663e-12 0)
(3 4.19152e-11 0)
(3 1.45948e-10 0)
(3 4.03377e-10 0)
(3 1.05912e-09 0)
(3 2.59086e-09 0)
(3 6.42882e-09 0)
(3 1.5283e-08 0)
(3 3.74071e-08 0)
(3 8.83125e-08 0)
(3 2.15095e-07 0)
(3 5.08428e-07 0)
(3 1.23116e-06 0)
(3 2.9219e-06 0)
(2.99999 7.04085e-06 0)
(2.99998 1.68037e-05 0)
(2.99995 4.01858e-05 0)
(2.99987 9.65617e-05 0)
(2.9997 0.000229578 0)
(2.99928 0.000554807 0)
(2.99828 0.00131306 0)
(2.9959 0.00319012 0)
(2.99015 0.00759383 0)
(2.97627 0.0185358 0)
(2.94159 0.0456773 0)
(3 3.7974e-12 0)
(3 2.40659e-11 0)
(3 8.12511e-11 0)
(3 2.315e-10 0)
(3 5.89748e-10 0)
(3 1.47977e-09 0)
(3 3.58078e-09 0)
(3 8.6778e-09 0)
(3 2.08625e-08 0)
(3 4.96995e-08 0)
(3 1.20317e-07 0)
(3 2.83436e-07 0)
(3 6.89941e-07 0)
(3 1.61637e-06 0)
(2.99999 3.93951e-06 0)
(2.99999 9.22763e-06 0)
(2.99997 2.24311e-05 0)
(2.99993 5.26532e-05 0)
(2.99983 0.00012739 0)
(2.9996 0.000300765 0)
(2.99904 0.000722321 0)
(2.99772 0.00171909 0)
(2.9945 0.00410995 0)
(2.98685 0.0098815 0)
(2.96797 0.0238859 0)
(3 2.07246e-12 0)
(3 1.34386e-11 0)
(3 4.52063e-11 0)
(3 1.29155e-10 0)
(3 3.27812e-10 0)
(3 8.24908e-10 0)
(3 1.98543e-09 0)
(3 4.82299e-09 0)
(3 1.15171e-08 0)
(3 2.75854e-08 0)
(3 6.61672e-08 0)
(3 1.56764e-07 0)
(3 3.78189e-07 0)
(3 8.92041e-07 0)
(3 2.15502e-06 0)
(2.99999 5.07592e-06 0)
(2.99998 1.22535e-05 0)
(2.99996 2.89026e-05 0)
(2.9999 6.95951e-05 0)
(2.99978 0.000164835 0)
(2.99946 0.000394679 0)
(2.99873 0.000941469 0)
(2.99694 0.00224689 0)
(2.99272 0.00539777 0)
(2.98242 0.0129822 0)
(3 1.14528e-12 0)
(3 7.06306e-12 0)
(3 2.48545e-11 0)
(3 6.77173e-11 0)
(3 1.79427e-10 0)
(3 4.3274e-10 0)
(3 1.07577e-09 0)
(3 2.53118e-09 0)
(3 6.16594e-09 0)
(3 1.45106e-08 0)
(3 3.48295e-08 0)
(3 8.26129e-08 0)
(3 1.96051e-07 0)
(3 4.69467e-07 0)
(3 1.09956e-06 0)
(3 2.66309e-06 0)
(2.99999 6.17276e-06 0)
(2.99998 1.50395e-05 0)
(2.99994 3.46745e-05 0)
(2.99987 8.46074e-05 0)
(2.99969 0.000195213 0)
(2.99926 0.000473846 0)
(2.99822 0.00110044 0)
(2.99579 0.00265798 0)
(2.98984 0.00623954 0)
(3 5.9584e-13 0)
(3 3.67786e-12 0)
(3 1.24674e-11 0)
(3 3.53142e-11 0)
(3 8.95509e-11 0)
(3 2.23438e-10 0)
(3 5.35664e-10 0)
(3 1.28483e-09 0)
(3 3.06389e-09 0)
(3 7.18988e-09 0)
(3 1.72311e-08 0)
(3 4.0003e-08 0)
(3 9.61202e-08 0)
(3 2.21497e-07 0)
(3 5.32673e-07 0)
(3 1.2225e-06 0)
(2.99999 2.93508e-06 0)
(2.99998 6.71845e-06 0)
(2.99996 1.60401e-05 0)
(2.99991 3.67622e-05 0)
(2.99979 8.69206e-05 0)
(2.99948 0.000200061 0)
(2.99876 0.000465945 0)
(2.997 0.0010813 0)
(2.99277 0.00248671 0)
(3 2.76553e-13 0)
(3 1.83802e-12 0)
(3 5.909e-12 0)
(3 1.75676e-11 0)
(3 4.23972e-11 0)
(3 1.10238e-10 0)
(3 2.51282e-10 0)
(3 6.26105e-10 0)
(3 1.41501e-09 0)
(3 3.44231e-09 0)
(3 7.84505e-09 0)
(3 1.86596e-08 0)
(3 4.31944e-08 0)
(3 9.9906e-08 0)
(3 2.36718e-07 0)
(3 5.30228e-07 0)
(2.99999 1.28338e-06 0)
(2.99999 2.79019e-06 0)
(2.99997 6.87785e-06 0)
(2.99993 1.4588e-05 0)
(2.99982 3.61131e-05 0)
(2.99957 7.58015e-05 0)
(2.99895 0.000185953 0)
(2.99747 0.00038877 0)
(2.99376 0.000933191 0)
(3 1.22962e-13 0)
(3 8.65503e-13 0)
(3 2.85017e-12 0)
(3 7.9356e-12 0)
(3 2.03751e-11 0)
(3 4.92105e-11 0)
(3 1.18422e-10 0)
(3 2.7721e-10 0)
(3 6.51566e-10 0)
(3 1.5139e-09 0)
(3 3.50915e-09 0)
(3 8.13844e-09 0)
(3 1.86262e-08 0)
(3 4.32963e-08 0)
(3 9.80131e-08 0)
(3 2.27322e-07 0)
(3 5.08528e-07 0)
(2.99999 1.18021e-06 0)
(2.99997 2.60935e-06 0)
(2.99993 5.97581e-06 0)
(2.99984 1.32245e-05 0)
(2.99961 2.96568e-05 0)
(2.99902 6.55203e-05 0)
(2.99762 0.000143371 0)
(2.99409 0.000317098 0)
(3 6.15389e-14 0)
(3 3.26057e-13 0)
(3 1.42815e-12 0)
(3 3.16354e-12 0)
(3 9.86097e-12 0)
(3 1.94459e-11 0)
(3 5.55054e-11 0)
(3 1.08702e-10 0)
(3 2.94504e-10 0)
(3 5.94174e-10 0)
(3 1.51291e-09 0)
(3 3.2189e-09 0)
(3 7.54301e-09 0)
(3 1.75601e-08 0)
(3 3.64009e-08 0)
(3 9.55077e-08 0)
(3 1.69551e-07 0)
(2.99999 5.20484e-07 0)
(2.99997 7.68551e-07 0)
(2.99994 2.76132e-06 0)
(2.99984 3.43698e-06 0)
(2.99962 1.43107e-05 0)
(2.99904 1.52728e-05 0)
(2.99768 7.00423e-05 0)
(2.99421 7.30267e-05 0)
(3 3.25723e-14 0)
(3 1.30937e-13 0)
(3 6.50173e-13 0)
(3 1.1834e-12 0)
(3 4.49023e-12 0)
(3 7.28619e-12 0)
(3 2.62416e-11 0)
(3 3.8256e-11 0)
(3 1.42061e-10 0)
(3 1.96372e-10 0)
(3 7.40742e-10 0)
(3 1.02865e-09 0)
(3 3.66973e-09 0)
(3 5.6717e-09 0)
(3 1.72383e-08 0)
(3 3.21947e-08 0)
(3 7.41553e-08 0)
(2.99999 1.94054e-07 0)
(2.99997 2.75598e-07 0)
(2.99994 1.18157e-06 0)
(2.99985 7.93014e-07 0)
(2.99962 7.13951e-06 0)
(2.99907 9.38436e-07 0)
(2.99767 4.05574e-05 0)
(2.99429 -2.4866e-07 0)
(3 -3.73018e-15 0)
(3 9.56947e-14 0)
(3 6.2646e-14 0)
(3 8.76711e-13 0)
(3 6.67287e-13 0)
(3 5.45864e-12 0)
(3 4.38684e-12 0)
(3 2.97087e-11 0)
(3 2.82462e-11 0)
(3 1.47888e-10 0)
(3 1.85775e-10 0)
(3 6.95065e-10 0)
(3 1.24133e-09 0)
(3 2.89821e-09 0)
(3 8.64428e-09 0)
(3 9.9901e-09 0)
(3 5.72041e-08 0)
(2.99999 1.99719e-08 0)
(2.99997 3.70293e-07 0)
(2.99994 -9.84543e-08 0)
(2.99985 2.26292e-06 0)
(2.99962 -1.38146e-06 0)
(2.99907 1.25402e-05 0)
(2.99768 -9.05099e-06 0)
(2.99433 6.21954e-05 0)
(3 -5.29371e-15 0)
(3 2.94443e-15 0)
(3 -4.75393e-14 0)
(3 3.90959e-13 0)
(3 -3.44814e-13 0)
(3 2.60481e-12 0)
(3 -2.63453e-12 0)
(3 1.59374e-11 0)
(3 -1.62386e-11 0)
(3 8.91606e-11 0)
(3 -8.62926e-11 0)
(3 4.5604e-10 0)
(3 -3.22838e-10 0)
(3 1.96183e-09 0)
(3 -2.86045e-10 0)
(3 6.91412e-09 0)
(3 9.85038e-09 0)
(2.99999 5.68156e-09 0)
(2.99997 1.43688e-07 0)
(2.99994 -1.88346e-07 0)
(2.99985 1.3012e-06 0)
(2.99962 -2.23776e-06 0)
(2.99906 9.32317e-06 0)
(2.99771 -1.68141e-05 0)
(2.99428 5.12603e-05 0)
(1.27387 1.08007 0)
(1.66011 0.874932 0)
(1.75934 0.623868 0)
(1.59586 0.332937 0)
(1.07414 0.133713 0)
(0.472052 0.20841 0)
(0.107342 0.232787 0)
(-0.106287 0.154687 0)
(-0.304672 0.0773588 0)
(-0.426535 0.0415611 0)
(-0.538218 0.0176914 0)
(-0.626087 -0.00126062 0)
(-0.691731 -0.011483 0)
(-0.735343 -0.0112866 0)
(-0.765303 -0.00337169 0)
(-0.793324 0.00452063 0)
(-0.825553 0.010244 0)
(-0.862059 0.0126958 0)
(-0.899221 0.0115204 0)
(-0.934774 0.00877007 0)
(-0.968346 0.00575255 0)
(-1.00082 0.00269176 0)
(-1.03449 0.000644037 0)
(-1.06529 0.00161422 0)
(-1.08502 0.00203923 0)
(-1.09415 0.0012572 0)
(-1.09727 -0.000128366 0)
(-1.08923 -0.0021215 0)
(-1.06131 -0.00569485 0)
(-1.01309 -0.0103836 0)
(-0.947204 -0.0152928 0)
(-0.869079 -0.01954 0)
(-0.783627 -0.0229071 0)
(-0.694465 -0.0256791 0)
(-0.605751 -0.0274445 0)
(-0.520016 -0.0285062 0)
(-0.438353 -0.0296023 0)
(-0.360394 -0.0309276 0)
(-0.284224 -0.0334411 0)
(-0.211875 -0.0341836 0)
(-0.142609 -0.0345126 0)
(-0.0763915 -0.0362707 0)
(-0.00997002 -0.0379475 0)
(0.0568378 -0.0329542 0)
(0.114141 -0.0298935 0)
(0.169892 -0.0283708 0)
(0.222491 -0.0270776 0)
(0.272357 -0.0257672 0)
(0.318527 -0.0242856 0)
(0.36297 -0.0233826 0)
(0.409114 -0.023382 0)
(0.455055 -0.0227926 0)
(0.498693 -0.0217629 0)
(0.540294 -0.0206552 0)
(0.580442 -0.0197194 0)
(0.619274 -0.0188292 0)
(0.656959 -0.0180241 0)
(0.693496 -0.0172065 0)
(0.728999 -0.0164522 0)
(0.763454 -0.0156914 0)
(0.796967 -0.0149833 0)
(0.829537 -0.0142781 0)
(0.86124 -0.0136215 0)
(0.892077 -0.012973 0)
(0.92211 -0.0123686 0)
(0.951337 -0.0117771 0)
(0.979807 -0.0112258 0)
(1.00752 -0.0106904 0)
(1.03451 -0.0101915 0)
(1.06076 -0.00971089 0)
(1.08632 -0.00926514 0)
(1.11115 -0.00884107 0)
(1.13528 -0.00845258 0)
(1.15869 -0.00809159 0)
(1.18136 -0.00776978 0)
(1.20325 -0.00748443 0)
(1.22435 -0.00724646 0)
(1.24458 -0.00706067 0)
(1.26391 -0.0069331 0)
(1.28225 -0.00687088 0)
(1.29954 -0.00688325 0)
(1.31569 -0.00697884 0)
(1.33059 -0.00716172 0)
(1.34416 -0.00743091 0)
(1.35622 -0.00778232 0)
(1.36625 -0.00817144 0)
(1.37491 -0.00861005 0)
(1.38307 -0.00909055 0)
(1.39029 -0.00959999 0)
(1.39594 -0.0101096 0)
(1.40006 -0.0105242 0)
(1.40325 -0.0107574 0)
(1.40589 -0.0107802 0)
(1.40834 -0.0105607 0)
(1.41104 -0.0101047 0)
(1.41436 -0.00945455 0)
(1.41842 -0.00864986 0)
(1.42321 -0.00774036 0)
(1.42764 -0.00675982 0)
(1.43872 -0.00616688 0)
(1.36576 0.991127 0)
(1.66457 0.707129 0)
(1.77816 0.409759 0)
(1.75303 0.180104 0)
(1.64105 0.0317808 0)
(1.28048 0.119171 0)
(0.918536 0.245256 0)
(0.70897 0.239184 0)
(0.549733 0.210454 0)
(0.40653 0.179322 0)
(0.267116 0.151501 0)
(0.139403 0.126945 0)
(0.0210137 0.104091 0)
(-0.104839 0.077574 0)
(-0.217505 0.0560563 0)
(-0.322263 0.0461597 0)