/*--------------------------------*- C++ -*----------------------------------*\
  =========                 |
  \\      /  F ield         | OpenFOAM: The Open Source CFD Toolbox
   \\    /   O peration     | Website:  https://openfoam.org
    \\  /    A nd           | Version:  13
     \\/     M anipulation  |
\*---------------------------------------------------------------------------*/
FoamFile
{
    format      ascii;
    class       surfaceScalarField;
    location    "2";
    object      phi;
}
// * * * * * * * * * * * * * * * * * * * * * * * * * * * * * * * * * * * * * //

dimensions      [1 0 -1 0 0 0 0];

internalField   nonuniform List<scalar> 
10325
(
0.0840003
3.96952e-10
0.0840003
2.27175e-09
0.0840002
8.1431e-09
0.0840004
2.24957e-08
0.0839998
5.99168e-08
0.0839998
1.48749e-07
0.0839995
3.70637e-07
0.0839924
9.38176e-07
0.0840015
2.28304e-06
0.0839688
5.98226e-06
0.0839728
1.48838e-05
0.0839024
4.14446e-05
0.0837528
0.000123625
0.0832348
0.00042752
0.0809254
0.00199537
0.0741683
0.00644602
0.0675109
0.0066151
0.0608928
0.00663042
0.0540081
0.00690793
0.0466185
0.00738782
0.0385629
0.00802369
0.0298824
0.00868641
0.0205786
0.00928804
0.010617
0.00991266
0.0105456
0.0840003
4.04076e-10
0.0840003
6.37372e-09
0.0840002
1.12513e-08
0.0840004
6.15049e-08
0.0839999
8.693e-08
0.0839995
3.89518e-07
0.0840001
5.80012e-07
0.083991
2.26212e-06
0.0840043
4.11298e-06
0.083964
1.29001e-05
0.0839789
2.90673e-05
0.0838948
8.46899e-05
0.0837544
0.000247934
0.0832316
0.000856261
0.0809833
0.00393588
0.0742325
0.0128805
0.0675647
0.0132375
0.0609858
0.0132232
0.0541543
0.013765
0.0467026
0.01484
0.0385262
0.0161687
0.029732
0.0174867
0.0202895
0.0187148
0.0102776
0.0198754
0.0207517
0.0840003
8.20081e-10
0.0840004
8.9708e-09
0.0839999
1.86554e-08
0.0840012
8.69041e-08
0.0839982
1.40911e-07
0.0840048
5.70761e-07
0.0839897
8.57014e-07
0.084016
3.6171e-06
0.0839607
5.17774e-06
0.0840397
2.10891e-05
0.083884
3.92822e-05
0.0839952
0.000128133
0.0837049
0.000356726
0.0833163
0.0012452
0.0813015
0.00563128
0.0747263
0.0191279
0.0679185
0.0199916
0.0613381
0.0198205
0.0546113
0.0205236
0.0471901
0.0222632
0.0389688
0.0243578
0.030096
0.0263704
0.0205169
0.0282831
0.0103632
0.0299808
0.0310438
0.0840003
1.99945e-09
0.0840004
7.07411e-09
0.084
3.69066e-08
0.0840009
6.94837e-08
0.0839982
2.71442e-07
0.0840051
4.63503e-07
0.0839862
1.74464e-06
0.0840308
2.80508e-06
0.0839275
1.07481e-05
0.0841115
1.8917e-05
0.0838017
6.26281e-05
0.084088
0.00014847
0.0836711
0.000467783
0.0834349
0.00156226
0.0817468
0.00698753
0.0754304
0.0251005
0.0684218
0.0269306
0.0619442
0.0263224
0.0554286
0.0270736
0.0480968
0.0296048
0.0398997
0.0325321
0.0309686
0.035309
0.0212554
0.037971
0.0108014
0.0403806
0.0417824
0.0840003
1.71719e-09
0.0840004
1.08349e-08
0.084
3.73994e-08
0.0840011
1.05752e-07
0.0839984
2.77717e-07
0.0840045
7.03524e-07
0.0839906
1.75027e-06
0.084015
4.3621e-06
0.0839638
1.07706e-05
0.0840391
2.70431e-05
0.0838924
6.87859e-05
0.0840093
0.000185042
0.0837489
0.000545123
0.0834893
0.001833
0.0821812
0.00800993
0.0760425
0.0308694
0.0688005
0.034075
0.0627834
0.0323799
0.0565454
0.033357
0.0493175
0.0368416
0.0411982
0.0406165
0.0322433
0.0442651
0.0223538
0.0478427
0.0115134
0.0511669
0.0532011
0.0840003
1.51449e-09
0.0840004
1.4563e-08
0.084
3.82957e-08
0.0840011
1.41554e-07
0.0839985
2.87987e-07
0.0840043
9.35306e-07
0.0839909
1.78559e-06
0.0840148
5.82778e-06
0.0839644
1.09546e-05
0.0840389
3.47738e-05
0.0838942
7.46141e-05
0.0840125
0.00022002
0.0837574
0.000616442
0.0835283
0.00207627
0.0824643
0.00881
0.0760517
0.0368802
0.0701313
0.0398411
0.0640582
0.0385459
0.0577395
0.0397466
0.0508737
0.0437007
0.0429525
0.0485092
0.0340608
0.0531471
0.0239584
0.0579437
0.0125399
0.0625593
0.0656569
0.0840003
2.45532e-09
0.0840004
1.36001e-08
0.0840001
5.1242e-08
0.0840008
1.32999e-07
0.0839987
3.79716e-07
0.0840039
8.83907e-07
0.0839891
2.41958e-06
0.0840239
5.46406e-06
0.0839405
1.49442e-05
0.0840928
3.43607e-05
0.0838257
9.29519e-05
0.0840849
0.000238374
0.0837125
0.000702377
0.0835725
0.00230261
0.0826991
0.00940254
0.0768908
0.0422138
0.071897
0.0448191
0.0659683
0.0445289
0.0591541
0.0465912
0.0526146
0.050251
0.0451018
0.0559745
0.0364467
0.0618057
0.0262947
0.0680971
0.014218
0.0746074
0.0798284
0.0840003
2.37413e-09
0.0840004
1.63031e-08
0.0839999
5.37327e-08
0.0840012
1.56949e-07
0.083998
4.04302e-07
0.0840056
1.02727e-06
0.0839876
2.58611e-06
0.084028
6.40858e-06
0.0839387
1.5909e-05
0.0840963
3.98672e-05
0.0838247
0.00010035
0.0840978
0.000266143
0.0837109
0.00076075
0.083671
0.00248345
0.0829966
0.00978088
0.0783991
0.0462879
0.0727633
0.0504833
0.0673617
0.0499706
0.061376
0.052607
0.0550004
0.0566584
0.0480049
0.0629547
0.0396369
0.0702078
0.0295676
0.0781759
0.0169544
0.087188
0.096716
0.0840003
2.78304e-09
0.0840004
1.72466e-08
0.0840001
6.1128e-08
0.0840009
1.69134e-07
0.0839986
4.52606e-07
0.0840044
1.1475e-06
0.0839892
2.78655e-06
0.0840251
7.22503e-06
0.0839422
1.69188e-05
0.0840969
4.46718e-05
0.0838178
0.000107649
0.0841168
0.000291199
0.0837052
0.000813479
0.0837252
0.00263282
0.0831976
0.0100087
0.0801273
0.0487792
0.074536
0.0561375
0.0693058
0.0552644
0.0639282
0.057997
0.0581595
0.0624305
0.0517196
0.0693616
0.0441661
0.0777568
0.0349468
0.0873997
0.0216964
0.10039
0.118346
0.0840003
3.46943e-09
0.0840003
1.63579e-08
0.0840003
6.98739e-08
0.0840003
1.60589e-07
0.084
5.18082e-07
0.084001
1.06908e-06
0.0839956
3.31073e-06
0.0840096
6.62408e-06
0.0839676
2.03172e-05
0.0840461
4.22545e-05
0.0838929
0.000122903
0.0840451
0.000295054
0.0837971
0.00086329
0.0838119
0.00269363
0.0835629
0.0100001
0.0830645
0.0486341
0.077378
0.0619192
0.0719439
0.0607701
0.0672295
0.0627355
0.0620075
0.0676718
0.05673
0.0746455
0.0508668
0.0836299
0.0426015
0.0956781
0.0300709
0.112897
0.148333
0.0840003
2.5449e-09
0.0840003
1.9342e-08
0.0840003
5.86725e-08
0.0840003
1.88704e-07
0.0840004
4.34474e-07
0.0839991
1.27598e-06
0.0840032
2.7116e-06
0.0839882
8.06683e-06
0.0840245
1.68409e-05
0.0839398
4.9565e-05
0.0840773
0.000110904
0.0838708
0.000312462
0.0840436
0.000833616
0.0839016
0.00262992
0.0843796
0.00944634
0.0882655
0.0440325
0.0821817
0.0681218
0.075783
0.0672656
0.0712327
0.0673193
0.0671928
0.0717345
0.063254
0.0785985
0.0590475
0.0878456
0.0553515
0.0993893
0.0556227
0.112634
0.116374
0.087554
0.0840003
2.78597e-09
0.0840003
1.59841e-08
0.0840005
5.76263e-08
0.0840001
1.55798e-07
0.0840008
4.33444e-07
0.0839997
1.01051e-06
0.0840007
2.8367e-06
0.0840013
6.1341e-06
0.0839957
1.77436e-05
0.0840124
3.82626e-05
0.0839965
0.000108631
0.0840447
0.000258247
0.084125
0.000733087
0.0845115
0.00216682
0.0862688
0.00755523
0.0970581
0.0325058
0.0899923
0.0752766
0.0818052
0.0755378
0.0769152
0.0722554
0.0728803
0.0757983
0.0694887
0.0820067
0.0671988
0.0901415
0.0669952
0.0995999
0.0718818
0.107761
0.105813
0.0824522
0.0840003
1.96308e-09
0.0840004
1.47396e-08
0.0840002
4.52363e-08
0.0840006
1.44269e-07
0.084
3.36325e-07
0.084001
9.57128e-07
0.0840003
2.10721e-06
0.0839995
5.90126e-06
0.0840079
1.28944e-05
0.0839949
3.56667e-05
0.0840397
8.09367e-05
0.0840514
0.000217776
0.0842084
0.000557009
0.0847126
0.00163097
0.086835
0.00535051
0.0971286
0.0218663
0.0943843
0.0778323
0.0902116
0.0796281
0.0833649
0.0791416
0.0791001
0.080084
0.0763496
0.0847682
0.0753657
0.0911338
0.0774806
0.0974884
0.0830097
0.102215
0.0994406
0.089368
0.0840003
2.1935e-09
0.0840004
1.11681e-08
0.0840002
4.5741e-08
0.0840006
1.09188e-07
0.0839997
3.35965e-07
0.0840023
7.42723e-07
0.0839959
2.07207e-06
0.0840136
4.68812e-06
0.0839754
1.24017e-05
0.0840696
2.91673e-05
0.0838992
7.45838e-05
0.0842036
0.000184927
0.0839092
0.000486903
0.08446
0.00137365
0.0850847
0.00441838
0.0897326
0.0171024
0.0949371
0.0720568
0.091622
0.0828501
0.0872192
0.0835011
0.0842459
0.0830623
0.0826622
0.0863624
0.082661
0.0911498
0.0850295
0.0951444
0.0898734
0.0973946
0.0944564
0.0948705
0.0840003
1.53679e-09
0.0840003
1.18439e-08
0.0840004
3.50746e-08
0.0840001
1.1558e-07
0.0840009
2.63958e-07
0.0839988
7.57732e-07
0.0840046
1.68837e-06
0.0839914
4.63297e-06
0.0840255
1.05134e-05
0.0839541
2.79635e-05
0.0841091
6.60349e-05
0.0838606
0.000172211
0.084237
0.000438305
0.0839972
0.00123068
0.0847623
0.00385076
0.0874306
0.0141475
0.0956513
0.063278
0.0937973
0.0846715
0.0911559
0.0861243
0.0886658
0.0855633
0.0878678
0.0871712
0.0884671
0.0905541
0.0906127
0.0929967
0.0945403
0.0934557
0.090271
0.0987129
0.0840003
1.64305e-09
0.0840003
9.34659e-09
0.0840003
3.45127e-08
0.0840004
9.12211e-08
0.0840002
2.57641e-07
0.084001
6.07646e-07
0.0839985
1.64577e-06
0.0840064
3.76086e-06
0.0839875
1.0169e-05
0.0840383
2.31119e-05
0.083938
6.27641e-05
0.0841426
0.000147574
0.0839067
0.00039935
0.0843276
0.00106535
0.0846116
0.00327403
0.0872406
0.0115169
0.10125
0.0486211
0.0988775
0.0869777
0.0957444
0.0892245
0.0930037
0.0883314
0.0923051
0.0878893
0.0931528
0.0897304
0.0950108
0.0911577
0.0979857
0.0905078
0.0870269
0.101249
0.0840003
1.28449e-09
0.0840003
7.4344e-09
0.0840003
2.75953e-08
0.0840005
7.29381e-08
0.0840001
2.03558e-07
0.0840013
4.87248e-07
0.0839992
1.26867e-06
0.0840049
3.02644e-06
0.0839975
7.61588e-06
0.0840167
1.86335e-05
0.0840047
4.56855e-05
0.0840784
0.000114703
0.0841072
0.0002866
0.0844979
0.000760337
0.0854463
0.00217581
0.0898182
0.0071256
0.109948
0.0281768
0.106279
0.0903585
0.103447
0.0920136
0.0993225
0.0924503
0.0972296
0.0900063
0.0974149
0.0895664
0.0988469
0.0897432
0.100955
0.0883943
0.0847119
0.10326
0.0840003
9.2617e-10
0.0840003
6.58287e-09
0.0840003
2.06849e-08
0.0840003
6.39008e-08
0.0840005
1.54659e-07
0.084
4.16711e-07
0.0840018
9.79259e-07
0.0839978
2.52533e-06
0.0840109
6.02922e-06
0.0839852
1.50414e-05
0.0840607
3.69463e-05
0.0839449
9.08119e-05
0.0842187
0.000229044
0.0840908
0.00058982
0.0848548
0.00164901
0.0864834
0.00521324
0.0947555
0.0197986
0.107519
0.0769938
0.106198
0.0932586
0.103742
0.0948582
0.101435
0.0923498
0.10099
0.0900366
0.101926
0.0888075
0.103409
0.0869085
0.08317
0.104947
0.0840003
8.00807e-10
0.0840003
5.04219e-09
0.0840003
1.76225e-08
0.0840004
4.96081e-08
0.0840002
1.30203e-07
0.0840009
3.33493e-07
0.0839997
8.06513e-07
0.0840026
2.09116e-06
0.0839992
4.8438e-06
0.0840057
1.29402e-05
0.0840057
2.92908e-05
0.0840197
7.92731e-05
0.0840475
0.000184974
0.0841451
0.000499981
0.0843932
0.00133149
0.0854493
0.004112
0.090395
0.0146902
0.107731
0.0590351
0.108603
0.0923828
0.107275
0.0961891
0.104883
0.094779
0.104219
0.0907463
0.104695
0.088373
0.105676
0.0859481
0.0822103
0.106639
0.0840003
6.59418e-10
0.0840003
3.83479e-09
0.0840004
1.3947e-08
0.0840003
3.73366e-08
0.0840005
1.03166e-07
0.0840002
2.46351e-07
0.0840009
6.52455e-07
0.0840006
1.50395e-06
0.0840015
3.98378e-06
0.0840066
9.11036e-06
0.084001
2.40755e-05
0.0840453
5.58755e-05
0.0840319
0.000146206
0.0842267
0.000357082
0.084498
0.000964948
0.0858359
0.00276105
0.0911474
0.00919791
0.114122
0.0353267
0.113836
0.0925998
0.113059
0.0970479
0.110709
0.0971998
0.108213
0.0932912
0.107577
0.0890473
0.107907
0.0856449
0.0817499
0.108379
0.0840003
4.33179e-10
0.0840003
3.13623e-09
0.0840003
9.74123e-09
0.0840003
3.0669e-08
0.0840004
7.26606e-08
0.0840002
2.00164e-07
0.0840011
4.59608e-07
0.0839993
1.21059e-06
0.0840061
2.82235e-06
0.0839935
7.19026e-06
0.0840355
1.72539e-05
0.0839686
4.28173e-05
0.0841687
0.000105973
0.0839743
0.00026359
0.0846099
0.000682883
0.0850524
0.0018894
0.0885457
0.00592514
0.101501
0.0219877
0.116084
0.0776427
0.116146
0.0969804
0.114322
0.0990389
0.111778
0.0958567
0.110626
0.0902153
0.110266
0.0859986
0.0817951
0.110225
0.0840003
3.76039e-10
0.0840003
2.17159e-09
0.0840003
8.06218e-09
0.0840004
2.12709e-08
0.0840003
5.94026e-08
0.0840006
1.43098e-07
0.084
3.6835e-07
0.084002
8.92669e-07
0.0839987
2.20861e-06
0.0840094
5.49865e-06
0.0839929
1.31861e-05
0.0840446
3.37509e-05
0.083982
8.00415e-05
0.0841783
0.000208045
0.0841176
0.0005157
0.0847997
0.0014187
0.0862413
0.00422225
0.093241
0.014934
0.115666
0.054624
0.118215
0.094323
0.118249
0.0989401
0.116253
0.097835
0.113853
0.0926244
0.112843
0.0870135
0.0823176
0.112322
0.0840003
2.46598e-10
0.0840003
1.66907e-09
0.0840003
5.43984e-09
0.0840003
1.62843e-08
0.0840004
4.06196e-08
0.0840003
1.06203e-07
0.0840008
2.55664e-07
0.0840003
6.42629e-07
0.084002
1.55534e-06
0.0840021
3.81658e-06
0.0840053
9.40712e-06
0.0840197
2.26688e-05
0.0840227
5.68248e-05
0.084128
0.00013724
0.0842236
0.00035032
0.0847856
0.000897486
0.0863699
0.00253927
0.0931789
0.00809875
0.118339
0.0291604
0.123391
0.0889579
0.123118
0.0991141
0.120698
0.100191
0.117266
0.0960591
0.115614
0.0886801
0.0834724
0.114475
0.0840003
1.98029e-10
0.0840003
1.12737e-09
0.0840003
4.20537e-09
0.0840003
1.10232e-08
0.0840003
3.09241e-08
0.0840004
7.30307e-08
0.0840003
1.92735e-07
0.0840009
4.47188e-07
0.0839999
1.15464e-06
0.0840049
2.70506e-06
0.0839967
6.8485e-06
0.0840296
1.63571e-05
0.0839834
4.06754e-05
0.0841485
9.95357e-05
0.0840144
0.000247111
0.0845845
0.000631056
0.0850329
0.001707
0.0881466
0.00519602
0.0982887
0.0186717
0.121722
0.0649163
0.124565
0.0961568
0.124516
0.100144
0.121332
0.0992145
0.118738
0.0913058
0.0852926
0.116931
0.0840003
1.28904e-10
0.0840003
8.26158e-10
0.0840003
2.79585e-09
0.0840003
8.07919e-09
0.0840004
2.0743e-08
0.0840003
5.27814e-08
0.0840006
1.30291e-07
0.0840001
3.19426e-07
0.0840018
7.91193e-07
0.0839997
1.90267e-06
0.0840083
4.75702e-06
0.0839989
1.13442e-05
0.084037
2.86041e-05
0.084015
6.81064e-05
0.0841684
0.000173326
0.0842257
0.000425908
0.0849388
0.00113124
0.0867023
0.00320634
0.0946865
0.01062
0.121567
0.0372861
0.127184
0.0903478
0.127992
0.0993262
0.126586
0.100605
0.122475
0.0954605
0.0879893
0.119827
0.0840003
8.48564e-11
0.0840003
5.80711e-10
0.0840003
1.89135e-09
0.0840003
5.66681e-09
0.0840003
1.40275e-08
0.0840003
3.70683e-08
0.0840004
8.77874e-08
0.0840003
2.24392e-07
0.0840012
5.31114e-07
0.0839999
1.33075e-06
0.0840064
3.2032e-06
0.0839968
7.85166e-06
0.0840375
1.92783e-05
0.0839868
4.66356e-05
0.0841876
0.000116543
0.0840626
0.000284702
0.0847958
0.000734737
0.0855796
0.00198381
0.0903668
0.00607856
0.105902
0.0213457
0.127069
0.0687287
0.129332
0.0970198
0.130029
0.099889
0.126267
0.0992398
0.0911218
0.123229
0.0840003
6.19435e-11
0.0840003
3.73119e-10
0.0840003
1.34657e-09
0.0840003
3.65133e-09
0.0840003
9.92604e-09
0.0840004
2.42416e-08
0.0840003
6.09597e-08
0.0840006
1.49224e-07
0.0840004
3.6153e-07
0.0840013
9.03031e-07
0.0840016
2.12833e-06
0.0840036
5.4458e-06
0.0840129
1.25683e-05
0.0840107
3.27065e-05
0.0840873
7.53653e-05
0.0840861
0.00019681
0.0844661
0.000473287
0.0849775
0.0012729
0.0875487
0.00360318
0.0965628
0.0120564
0.124315
0.0403284
0.131249
0.0898933
0.132458
0.0986875
0.13109
0.100624
0.0952047
0.127054
0.0840003
3.86892e-11
0.0840003
2.62168e-10
0.0840003
8.53518e-10
0.0840003
2.55786e-09
0.0840003
6.32558e-09
0.0840003
1.6659e-08
0.0840004
3.97049e-08
0.0840003
9.98603e-08
0.0840007
2.40472e-07
0.0840005
5.88534e-07
0.084002
1.44485e-06
0.0840027
3.45549e-06
0.0840064
8.65937e-06
0.0840203
2.03779e-05
0.0840291
5.18341e-05
0.0841283
0.000122058
0.0842291
0.00031365
0.0847599
0.000777007
0.0861355
0.00213483
0.0916713
0.00647911
0.109589
0.0221325
0.13119
0.0678108
0.133141
0.0966804
0.134853
0.0988817
0.0986618
0.131421
0.0840003
2.81173e-11
0.0840003
1.61783e-10
0.0840003
5.99726e-10
0.0840003
1.58073e-09
0.0840003
4.39403e-09
0.0840003
1.0417e-08
0.0840003
2.7057e-08
0.0840004
6.35399e-08
0.0840003
1.60271e-07
0.0840011
3.81449e-07
0.0840003
9.3932e-07
0.0840043
2.28198e-06
0.084001
5.50089e-06
0.0840208
1.36382e-05
0.0840115
3.23153e-05
0.0840992
8.17452e-05
0.0841243
0.000194005
0.0845211
0.000499246
0.0851596
0.00127463
0.0880888
0.00365707
0.0979689
0.011977
0.126431
0.038684
0.135156
0.0877631
0.136565
0.0974789
0.100122
0.135122
0.0840003
1.61016e-11
0.0840003
1.11367e-10
0.0840003
3.58768e-10
0.0840003
1.08542e-09
0.0840003
2.66383e-09
0.0840003
7.0335e-09
0.0840004
1.66515e-08
0.0840003
4.21178e-08
0.0840005
1.00349e-07
0.0840003
2.47374e-07
0.0840013
6.00989e-07
0.0840008
1.44659e-06
0.0840047
3.58843e-06
0.0840067
8.44704e-06
0.0840176
2.14483e-05
0.0840501
4.96834e-05
0.0841003
0.000128102
0.0843013
0.000302114
0.084764
0.0007897
0.0862779
0.00208127
0.0918532
0.0063214
0.109278
0.0210655
0.133629
0.0628669
0.136296
0.0947237
0.0974222
0.139006
0.0840003
1.11155e-11
0.0840003
6.57332e-11
0.0840003
2.3966e-10
0.0840003
6.4325e-10
0.0840003
1.75633e-09
0.0840003
4.2446e-09
0.0840003
1.0765e-08
0.0840004
2.58136e-08
0.0840003
6.34854e-08
0.0840006
1.54208e-07
0.0840004
3.70157e-07
0.0840018
9.16903e-07
0.0840015
2.15828e-06
0.0840067
5.42961e-06
0.0840123
1.2593e-05
0.0840272
3.21174e-05
0.0840857
7.42385e-05
0.0841689
0.00019057
0.0845152
0.000455566
0.0853379
0.00120213
0.0882873
0.00331353
0.0985261
0.0106531
0.127293
0.0333885
0.138569
0.0832362
0.0965862
0.139404
0.0840003
6.70963e-12
0.0840003
4.21206e-11
0.0840003
1.45292e-10
0.0840003
4.11053e-10
0.0840003
1.07327e-09
0.0840003
2.66757e-09
0.0840003
6.67996e-09
0.0840003
1.59372e-08
0.0840004
3.99487e-08
0.0840004
9.35725e-08
0.0840005
2.36666e-07
0.084001
5.49037e-07
0.0840011
1.39213e-06
0.0840052
3.23328e-06
0.0840026
8.16525e-06
0.0840329
1.9141e-05
0.0840135
4.79164e-05
0.0841858
0.00011451
0.0841536
0.000285911
0.0849213
0.000712053
0.0859278
0.00189484
0.0912778
0.00558008
0.105805
0.0184209
0.134197
0.0543127
0.0909042
0.139764
0.0840003
3.86786e-12
0.0840003
2.632e-11
0.0840003
8.64394e-11
0.0840003
2.56677e-10
0.0840003
6.37354e-10
0.0840003
1.66853e-09
0.0840003
3.93071e-09
0.0840003
9.98604e-09
0.0840004
2.33577e-08
0.0840003
5.84591e-08
0.0840006
1.37834e-07
0.0840004
3.39514e-07
0.084002
8.1268e-07
0.0840007
1.968e-06
0.0840099
4.78567e-06
0.0840045
1.13978e-05
0.0840523
2.81596e-05
0.0840376
6.6464e-05
0.0842651
0.000166442
0.0843813
0.000399579
0.0854689
0.00103256
0.0879538
0.00278194
0.0978449
0.00860962
0.125418
0.0264551
0.0749417
0.141015
0.0840003
2.49261e-12
0.0840003
1.54225e-11
0.0840003
5.45406e-11
0.0840003
1.50474e-10
0.0840003
3.99729e-10
0.0840003
9.84195e-10
0.0840003
2.43936e-09
0.0840003
5.95209e-09
0.0840003
1.42921e-08
0.0840004
3.52624e-08
0.0840004
8.30738e-08
0.0840006
2.07512e-07
0.0840008
4.82907e-07
0.0840014
1.21558e-06
0.0840043
2.8143e-06
0.0840038
7.09515e-06
0.0840282
1.64912e-05
0.0840168
4.13339e-05
0.0841668
9.75428e-05
0.0841424
0.000243914
0.0848448
0.000597832
0.0856533
0.00156585
0.0900998
0.00445865
0.101703
0.0144294
0.0432563
0.132742
0.0840003
1.51818e-12
0.0840003
9.18695e-12
0.0840003
3.26711e-11
0.0840003
8.96003e-11
0.0840003
2.40225e-10
0.0840003
5.80999e-10
0.0840003
1.48161e-09
0.0840003
3.46631e-09
0.0840003
8.75593e-09
0.0840004
2.03641e-08
0.0840003
5.10824e-08
0.0840006
1.1943e-07
0.0840004
2.96236e-07
0.0840017
7.01822e-07
0.0840008
1.71431e-06
0.0840084
4.12524e-06
0.0840041
9.91634e-06
0.0840455
2.42774e-05
0.0840293
5.76815e-05
0.0842305
0.000143527
0.0842959
0.000344284
0.0852098
0.000880549
0.0870241
0.00231872
0.0945991
0.00694137
0.0217593
0.115821
0.0840003
8.47854e-13
0.0840003
5.50017e-12
0.0840003
1.86651e-11
0.0840003
5.36659e-11
0.0840003
1.37132e-10
0.0840003
3.47794e-10
0.0840003
8.43318e-10
0.0840003
2.07128e-09
0.0840003
4.97488e-09
0.0840003
1.20881e-08
0.0840004
2.90964e-08
0.0840004
7.01285e-08
0.0840006
1.69492e-07
0.0840006
4.06327e-07
0.0840017
9.86917e-07
0.084003
2.35168e-06
0.0840062
5.73397e-06
0.0840209
1.36407e-05
0.0840253
3.33345e-05
0.084136
7.94836e-05
0.0841662
0.000195668
0.0847483
0.000476809
0.0855422
0.00122116
0.0893508
0.00334274
0.0103903
0.100366
0.0840003
4.83515e-13
0.0840003
3.26849e-12
0.0840003
1.07261e-11
0.0840003
3.18531e-11
0.0840003
7.88323e-11
0.0840003
2.05903e-10
0.0840003
4.84341e-10
0.0840003
1.21873e-09
0.0840003
2.87042e-09
0.0840003
7.06288e-09
0.0840004
1.68417e-08
0.0840003
4.06451e-08
0.0840005
9.86945e-08
0.0840005
2.33701e-07
0.0840012
5.76306e-07
0.0840018
1.34548e-06
0.0840038
3.35601e-06
0.0840116
7.77731e-06
0.0840144
1.9475e-05
0.0840767
4.52686e-05
0.0840806
0.000113376
0.0844336
0.000268685
0.0846934
0.000681375
0.0866011
0.00174331
0.0050399
0.0914798
0.0840003
2.93523e-13
0.0840003
1.79871e-12
0.0840003
6.41193e-12
0.0840003
1.75349e-11
0.0840003
4.68613e-11
0.0840003
1.14172e-10
0.0840003
2.84727e-10
0.0840003
6.85429e-10
0.0840003
1.65428e-09
0.0840003
4.03316e-09
0.0840003
9.51742e-09
0.0840004
2.35685e-08
0.0840004
5.47426e-08
0.0840005
1.36924e-07
0.0840008
3.1605e-07
0.0840009
7.916e-07
0.0840038
1.83123e-06
0.0840027
4.55614e-06
0.0840222
1.06506e-05
0.0840131
2.62083e-05
0.0841284
6.21592e-05
0.0841006
0.000152111
0.0846619
0.000369485
0.0850569
0.000925876
0.00244957
0.0880375
0.0840003
1.6355e-13
0.0840003
1.03785e-12
0.0840003
3.54691e-12
0.0840003
1.01045e-11
0.0840003
2.60684e-11
0.0840003
6.47984e-11
0.0840003
1.60289e-10
0.0840003
3.8135e-10
0.0840003
9.4446e-10
0.0840003
2.19897e-09
0.0840003
5.48927e-09
0.0840003
1.2658e-08
0.0840004
3.16585e-08
0.0840005
7.30536e-08
0.0840004
1.81528e-07
0.0840012
4.22887e-07
0.0840009
1.03736e-06
0.0840056
2.4492e-06
0.0840041
5.9177e-06
0.0840296
1.4203e-05
0.0840267
3.37946e-05
0.0841541
8.25002e-05
0.0842034
0.000195696
0.0848153
0.000488345
0.00121409
0.0857261
0.0840003
8.89096e-14
0.0840003
5.8431e-13
0.0840003
1.96825e-12
0.0840003
5.69527e-12
0.0840003
1.43844e-11
0.0840003
3.68912e-11
0.0840003
8.70941e-11
0.0840003
2.19186e-10
0.0840003
5.06577e-10
0.0840003
1.27156e-09
0.0840003
2.92928e-09
0.0840003
7.29353e-09
0.0840004
1.69471e-08
0.0840004
4.17033e-08
0.0840005
9.81103e-08
0.0840005
2.37742e-07
0.0840014
5.68871e-07
0.0840015
1.35389e-06
0.0840056
3.29461e-06
0.0840096
7.71455e-06
0.0840236
1.90666e-05
0.0840655
4.42082e-05
0.0841202
0.000110456
0.0844001
0.000258792
0.000656326
0.0848245
0.0840003
5.19853e-14
0.0840003
3.14488e-13
0.0840003
1.11927e-12
0.0840003
3.05545e-12
0.0840003
8.18415e-12
0.0840003
1.96811e-11
0.0840003
4.99143e-11
0.0840003
1.16036e-10
0.0840003
2.91133e-10
0.0840003
6.71169e-10
0.0840003
1.67328e-09
0.0840003
3.87861e-09
0.0840003
9.55945e-09
0.0840004
2.24201e-08
0.0840004
5.44554e-08
0.0840006
1.297e-07
0.0840006
3.09786e-07
0.0840015
7.50372e-07
0.0840026
1.76275e-06
0.0840055
4.33473e-06
0.0840168
1.00607e-05
0.0840231
2.4997e-05
0.0841065
5.78717e-05
0.0841353
0.000144693
0.000340969
0.0845913
0.0840003
2.64999e-14
0.0840003
1.72366e-13
0.0840003
5.99857e-13
0.0840003
1.68885e-12
0.0840003
4.36459e-12
0.0840003
1.09331e-11
0.0840003
2.63673e-11
0.0840003
6.48441e-11
0.0840003
1.52642e-10
0.0840003
3.75754e-10
0.0840003
8.7563e-10
0.0840003
2.157e-09
0.0840003
5.0185e-09
0.0840003
1.23349e-08
0.0840004
2.87736e-08
0.0840004
7.02525e-08
0.0840007
1.65187e-07
0.0840007
3.99061e-07
0.0840019
9.48927e-07
0.0840033
2.26102e-06
0.0840077
5.4475e-06
0.0840216
1.28174e-05
0.0840354
3.12206e-05
0.0841381
7.30583e-05
0.000179846
0.0842089
0.0840003
1.41634e-14
0.0840003
9.53723e-14
0.0840003
3.16769e-13
0.0840003
9.26644e-13
0.0840003
2.3088e-12
0.0840003
5.9427e-12
0.0840003
1.40628e-11
0.0840003
3.48135e-11
0.0840003
8.21507e-11
0.0840003
1.99083e-10
0.0840003
4.73903e-10
0.0840003
1.1313e-09
0.0840003
2.72876e-09
0.0840003
6.40966e-09
0.0840003
1.56465e-08
0.0840004
3.63906e-08
0.0840004
8.94589e-08
0.0840008
2.0675e-07
0.0840007
5.09185e-07
0.0840029
1.17866e-06
0.0840026
2.88784e-06
0.0840151
6.72798e-06
0.0840147
1.63358e-05
0.0840811
3.85275e-05
9.27606e-05
0.0840935
0.0840003
8.53094e-15
0.0840003
4.84328e-14
0.0840003
1.74305e-13
0.0840003
4.707e-13
0.0840003
1.27463e-12
0.0840003
3.0496e-12
0.0840003
7.71886e-12
0.0840003
1.79671e-11
0.0840003
4.46862e-11
0.0840003
1.03542e-10
0.0840003
2.55027e-10
0.0840003
5.93728e-10
0.0840003
1.44628e-09
0.0840003
3.40431e-09
0.0840003
8.18533e-09
0.0840004
1.94967e-08
0.0840004
4.62148e-08
0.0840005
1.11676e-07
0.0840008
2.61063e-07
0.084001
6.37336e-07
0.0840032
1.47811e-06
0.0840036
3.62813e-06
0.0840183
8.39109e-06
0.0840168
2.05998e-05
4.78799e-05
0.0841063
0.0840003
4.0289e-15
0.0840003
2.52996e-14
0.0840003
8.76658e-14
0.0840003
2.58985e-13
0.0840003
6.45171e-13
0.0840003
1.66032e-12
0.0840003
3.9185e-12
0.0840003
9.76794e-12
0.0840003
2.26153e-11
0.0840003
5.61103e-11
0.0840003
1.29339e-10
0.0840003
3.19172e-10
0.0840003
7.39415e-10
0.0840003
1.8075e-09
0.0840003
4.22574e-09
0.0840003
1.02123e-08
0.0840004
2.41812e-08
0.0840004
5.75578e-08
0.0840006
1.38117e-07
0.0840007
3.24821e-07
0.0840017
7.88196e-07
0.084003
1.8324e-06
0.0840067
4.4892e-06
0.0840181
1.03829e-05
2.55035e-05
0.0840304
0.0840003
1.61741e-15
0.0840003
1.35955e-14
0.0840003
4.53676e-14
0.0840003
1.31158e-13
0.0840003
3.39983e-13
0.0840003
8.38935e-13
0.0840003
2.06734e-12
0.0840003
4.91713e-12
0.0840003
1.19489e-11
0.0840003
2.82085e-11
0.0840003
6.80965e-11
0.0840003
1.60705e-10
0.0840003
3.86746e-10
0.0840003
9.14592e-10
0.0840003
2.18887e-09
0.0840003
5.20694e-09
0.0840003
1.23755e-08
0.0840004
2.96125e-08
0.0840004
6.99372e-08
0.0840006
1.68011e-07
0.0840011
3.95556e-07
0.0840014
9.5109e-07
0.0840051
2.23646e-06
0.0840055
5.37471e-06
1.26617e-05
0.0840294
0.0840003
1.20889e-15
0.0840003
7.43307e-15
0.0840003
2.5518e-14
0.0840003
6.62992e-14
0.0840003
1.79137e-13
0.0840003
4.18942e-13
0.0840003
1.06141e-12
0.0840003
2.45933e-12
0.0840003
6.11221e-12
0.0840003
1.41219e-11
0.0840003
3.46726e-11
0.0840003
8.05882e-11
0.0840003
1.95504e-10
0.0840003
4.59686e-10
0.0840003
1.09814e-09
0.0840003
2.61557e-09
0.0840003
6.16294e-09
0.0840004
1.48833e-08
0.0840004
3.45377e-08
0.0840005
8.43436e-08
0.0840007
1.93948e-07
0.0840009
4.76025e-07
0.0840028
1.0914e-06
0.0840032
2.66952e-06
6.15379e-06
0.0840151
0.0840003
1.44828e-15
0.0840003
2.81264e-15
0.0840003
1.02928e-14
0.0840003
3.10854e-14
0.0840003
7.91387e-14
0.0840003
2.08396e-13
0.0840003
4.886e-13
0.0840003
1.2306e-12
0.0840003
2.84878e-12
0.0840003
7.01278e-12
0.0840003
1.6301e-11
0.0840003
3.94687e-11
0.0840003
9.2902e-11
0.0840003
2.21044e-10
0.0840003
5.28433e-10
0.0840003
1.23736e-09
0.0840003
2.99605e-09
0.0840003
6.92314e-09
0.0840004
1.69274e-08
0.0840004
3.87962e-08
0.0840005
9.51625e-08
0.0840008
2.17817e-07
0.084001
5.31615e-07
0.0840034
1.22539e-06
2.95943e-06
0.0840037
0.0840003
-4.98733e-16
0.0840003
1.27979e-15
0.0840003
2.82435e-15
0.0840003
1.10667e-14
0.0840003
3.19968e-14
0.0840003
7.89347e-14
0.0840003
2.05517e-13
0.0840003
4.71298e-13
0.0840003
1.179e-12
0.0840003
2.69914e-12
0.0840003
6.63137e-12
0.0840003
1.53887e-11
0.0840003
3.70235e-11
0.0840003
8.75664e-11
0.0840003
2.05768e-10
0.0840003
4.95649e-10
0.0840003
1.14308e-09
0.0840003
2.79338e-09
0.0840003
6.35294e-09
0.0840004
1.56386e-08
0.0840005
3.53429e-08
0.0840005
8.7126e-08
0.0840011
1.9679e-07
0.0840011
4.81854e-07
1.09922e-06
0.0840043
0.0840003
0.0840003
0.0840003
0.0840003
0.0840003
0.0840003
0.0840003
0.0840003
0.0840003
0.0840003
0.0840003
0.0840003
0.0840003
0.0840003
0.0840003
0.0840003
0.0840003
0.0840003
0.0840003
0.0840004
0.0840004
0.0840005
0.0840006
0.0840013
0.0840015
0.0472588
0.0402766
0.0312728
0.0159805
0.0244697
0.00680186
0.0217617
0.00270492
0.0216242
0.00013549
0.0235398
-0.00192134
0.0256816
-0.00215111
0.0268833
-0.00121473
0.0272999
-0.000428377
0.0272541
3.38882e-05
0.0270253
0.000219766
0.0268992
0.000115814
0.0268737
1.59018e-05
0.0269625
-9.52445e-05
0.0270845
-0.000133753
0.0271963
-0.000120691
0.0272851
-9.84887e-05
0.0273505
-7.38219e-05
0.0273956
-5.34239e-05
0.0274313
-4.33501e-05
0.0274778
-5.11856e-05
0.0275452
-6.79795e-05
0.0276275
-7.9433e-05
0.0277166
-8.34404e-05
0.0278083
-8.42293e-05
0.0279005
-8.44714e-05
0.0279917
-8.51849e-05
0.0280807
-8.62352e-05
0.0281671
-8.71685e-05
0.0282501
-8.76155e-05
0.0283294
-8.75059e-05
0.0284035
-8.69255e-05
0.0284724
-8.60116e-05
0.0285341
-8.49564e-05
0.0285879
-8.37731e-05
0.0286345
-8.25512e-05
0.0286727
-8.09091e-05
0.0286832
-8.00069e-05
0.0286902
-8.13186e-05
0.0286895
-8.41919e-05
0.0286485
-8.73683e-05
0.0285482
-8.82812e-05
0.0283312
-7.99511e-05
0.0278404
-4.81163e-05
0.0266045
0.00011162
0.0231406
0.000827357
0.0133947
0.00399979
0.00563092
0.00502221
0.00575171
0.000687045
0.0106029
-0.00459957
0.016018
-0.00560513
0.0209425
-0.00518992
0.0254843
-0.0046676
0.0295999
-0.0041626
0.0331618
-0.00359049
0.0361455
-0.00298439
0.0386885
-0.00255144
0.0410334
-0.00230045
0.0431004
-0.00201531
0.0449099
-0.00179158
0.0465123
-0.00160462
0.0479339
-0.00143488
0.0492095
-0.00128524
0.0503485
-0.00115367
0.051372
-0.00104034
0.0522885
-0.000941485
0.0531053
-0.00085431
0.0538311
-0.00077541
0.0544783
-0.000702305
0.0550474
-0.000634091
0.0555483
-0.000569618
0.0559857
-0.000509591
0.0563627
-0.000452484
0.0566874
-0.000399167
0.0569584
-0.00034884
0.0571869
-0.000302487
0.0573688
-0.000260001
0.0575159
-0.000221901
0.0576218
-0.0001863
0.0576967
-0.000152607
0.0577372
-0.000124706
0.0577519
-9.88753e-05
0.0577352
-7.40123e-05
0.0576944
-5.03762e-05
0.0576266
-2.77024e-05
0.0575351
-5.02767e-06
0.0574279
9.92996e-06
0.0573073
2.32902e-05
0.0571742
3.75326e-05
0.0570257
5.14398e-05
0.0568661
6.44988e-05
0.0566931
7.65454e-05
0.0565109
8.79028e-05
0.0563182
9.86552e-05
0.0561165
0.000109262
0.0559048
0.000120165
0.0556816
0.00013225
0.0554425
0.000149007
0.0551838
0.000169459
0.000214255
0.0625047
0.0602226
0.0480838
0.0303989
0.040957
0.0139278
0.0381834
0.00547457
0.0370996
0.00121348
0.0361528
-0.000981563
0.035521
-0.0015302
0.0358591
-0.00156422
0.0366224
-0.00120488
0.0373297
-0.000687251
0.0378473
-0.000313053
0.0380506
-0.000101978
0.0380653
-1.27357e-05
0.0379669
-9.99819e-06
0.0378869
-6.59904e-05
0.0378726
-0.000122127
0.0379011
-0.000142493
0.0379525
-0.000140035
0.0380092
-0.000127679
0.0380609
-0.000111419
0.0380876
-9.41846e-05
0.0380874
-8.41774e-05
0.0380772
-8.58187e-05
0.0380708
-9.24352e-05
0.0380732
-9.98299e-05
0.0380824
-0.000105536
0.0380959
-0.000108902
0.0381101
-0.000109846
0.0381229
-0.000109389
0.0381338
-0.00010801
0.0381425
-0.00010651
0.0381477
-0.000104991
0.0381537
-0.000103671
0.0381537
-0.000102714
0.0381557
-0.000101953
0.0381546
-0.000102896
0.0381536
-0.000103922
0.0381479
-0.000120123
0.0381559
-0.000138225
0.0381744
-0.000164534
0.0381957
-0.000207607
0.038238
-0.000283202
0.038324
-0.00043282
0.0384996