/*--------------------------------*- C++ -*----------------------------------*\
  =========                 |
  \\      /  F ield         | OpenFOAM: The Open Source CFD Toolbox
   \\    /   O peration     | Website:  https://openfoam.org
    \\  /    A nd           | Version:  13
     \\/     M anipulation  |
\*---------------------------------------------------------------------------*/
FoamFile
{
    format      ascii;
    class       volVectorField;
    location    "2";
    object      U;
}
// * * * * * * * * * * * * * * * * * * * * * * * * * * * * * * * * * * * * * //

dimensions      [0 1 -1 0 0 0 0];

internalField   nonuniform List<vector> 
5250
(
(3 5.52112e-09 0)
(2.99999 3.37878e-08 0)
(2.99998 1.1812e-07 0)
(2.99994 3.31422e-07 0)
(2.99984 8.75296e-07 0)
(2.99962 2.19158e-06 0)
(2.99904 5.39906e-06 0)
(2.99767 1.36821e-05 0)
(2.99417 3.33831e-05 0)
(2.98559 8.59314e-05 0)
(2.96347 0.000212366 0)
(2.90433 0.000553948 0)
(2.73604 0.00149184 0)
(2.2315 0.00423227 0)
(1.07063 0.0125459 0)
(0.371867 0.0211864 0)
(0.542359 0.0240871 0)
(0.595577 0.025943 0)
(0.540154 0.0278099 0)
(0.445576 0.0299914 0)
(0.355162 0.032765 0)
(0.28215 0.0360487 0)
(0.210162 0.0395495 0)
(0.127984 0.0437551 0)
(0.0581902 0.049451 0)
(3 1.23142e-08 0)
(2.99999 1.27994e-07 0)
(2.99998 2.88716e-07 0)
(2.99994 1.24491e-06 0)
(2.99985 2.178e-06 0)
(2.99962 7.9918e-06 0)
(2.99905 1.40858e-05 0)
(2.99769 4.74377e-05 0)
(2.99423 9.43147e-05 0)
(2.98574 0.000276336 0)
(2.96386 0.000628428 0)
(2.9054 0.00171125 0)
(2.73909 0.0045387 0)
(2.24062 0.012978 0)
(1.08407 0.0383505 0)
(0.38026 0.0631924 0)
(0.544001 0.0691046 0)
(0.595877 0.071584 0)
(0.540382 0.074202 0)
(0.446176 0.0780017 0)
(0.355878 0.0829794 0)
(0.282099 0.0883522 0)
(0.208763 0.0932791 0)
(0.125033 0.0981835 0)
(0.0549045 0.103224 0)
(3 1.30847e-08 0)
(2.99999 2.3206e-07 0)
(2.99998 4.26736e-07 0)
(2.99994 2.24602e-06 0)
(2.99985 3.29621e-06 0)
(2.99963 1.44498e-05 0)
(2.99908 2.09576e-05 0)
(2.99774 8.79202e-05 0)
(2.99436 0.000137387 0)
(2.98604 0.000500786 0)
(2.96467 0.000981803 0)
(2.90758 0.0029116 0)
(2.74547 0.00745305 0)
(2.25996 0.0215955 0)
(1.1142 0.0639482 0)
(0.400777 0.107461 0)
(0.548881 0.117518 0)
(0.598141 0.120777 0)
(0.543537 0.125041 0)
(0.450938 0.132735 0)
(0.361351 0.14223 0)
(0.286873 0.151917 0)
(0.212161 0.161002 0)
(0.126735 0.169483 0)
(0.0546936 0.176528 0)
(3 3.66058e-08 0)
(2.99999 2.33791e-07 0)
(2.99998 8.02712e-07 0)
(2.99994 2.28449e-06 0)
(2.99986 5.99666e-06 0)
(2.99964 1.52242e-05 0)
(2.99911 3.79835e-05 0)
(2.99779 9.48887e-05 0)
(2.99458 0.000234101 0)
(2.98645 0.000586035 0)
(2.96587 0.00146474 0)
(2.91079 0.00378046 0)
(2.75471 0.010209 0)
(2.28849 0.0290764 0)
(1.16018 0.0865063 0)
(0.433146 0.150894 0)
(0.55655 0.16676 0)
(0.601494 0.169387 0)
(0.549568 0.174769 0)
(0.460319 0.187366 0)
(0.371711 0.202013 0)
(0.296508 0.216477 0)
(0.220327 0.230408 0)
(0.132525 0.243279 0)
(0.0568519 0.25293 0)
(3 5.58759e-08 0)
(2.99999 2.57296e-07 0)
(2.99998 1.10405e-06 0)
(2.99994 2.52846e-06 0)
(2.99986 8.14323e-06 0)
(2.99965 1.70575e-05 0)
(2.99914 5.1761e-05 0)
(2.9979 0.00010558 0)
(2.99477 0.000317025 0)
(2.98706 0.000672497 0)
(2.96733 0.00188695 0)
(2.91488 0.00456174 0)
(2.76661 0.0125989 0)
(2.3245 0.0354805 0)
(1.22193 0.1059 0)
(0.477684 0.194351 0)
(0.566174 0.218045 0)
(0.60405 0.21731 0)
(0.55781 0.222811 0)
(0.474016 0.241025 0)
(0.386256 0.261379 0)
(0.310236 0.281195 0)
(0.232592 0.300719 0)
(0.141694 0.318919 0)
(0.0609112 0.332005 0)
(3 4.72028e-08 0)
(2.99999 3.79397e-07 0)
(2.99998 1.12908e-06 0)
(2.99995 3.6978e-06 0)
(2.99987 8.45492e-06 0)
(2.99967 2.4459e-05 0)
(2.99919 5.27464e-05 0)
(2.99801 0.000151534 0)
(2.99505 0.00032222 0)
(2.98776 0.000907756 0)
(2.96911 0.00206179 0)
(2.91972 0.00556416 0)
(2.78054 0.014536 0)
(2.36709 0.04133 0)
(1.29967 0.123066 0)
(0.535498 0.241787 0)
(0.576527 0.267389 0)
(0.60308 0.263921 0)
(0.567677 0.270783 0)
(0.492167 0.294167 0)
(0.405428 0.321154 0)
(0.328808 0.347351 0)
(0.249959 0.374051 0)
(0.155258 0.399866 0)
(0.0673773 0.419112 0)
(3 5.84808e-08 0)
(2.99999 4.18751e-07 0)
(2.99998 1.32928e-06 0)
(2.99995 4.08606e-06 0)
(2.99988 9.92102e-06 0)
(2.99969 2.70936e-05 0)
(2.99925 6.24831e-05 0)
(2.99812 0.000167764 0)
(2.9954 0.00038327 0)
(2.98851 0.00101554 0)
(2.97121 0.0024135 0)
(2.92529 0.00632862 0)
(2.7964 0.0166603 0)
(2.41573 0.0470278 0)
(1.39722 0.139061 0)
(0.605954 0.293877 0)
(0.584529 0.310438 0)
(0.603231 0.308965 0)
(0.580599 0.321353 0)
(0.515084 0.347068 0)
(0.430351 0.380884 0)
(0.353533 0.415066 0)
(0.274357 0.451228 0)
(0.175945 0.488201 0)
(0.078369 0.518968 0)
(3 7.2125e-08 0)
(2.99999 4.4335e-07 0)
(2.99998 1.56043e-06 0)
(2.99995 4.30223e-06 0)
(2.99989 1.16354e-05 0)
(2.99972 2.83833e-05 0)
(2.99931 7.42164e-05 0)
(2.99828 0.000176272 0)
(2.99575 0.000455925 0)
(2.98945 0.00109154 0)
(2.97354 0.00278965 0)
(2.9316 0.00700539 0)
(2.81447 0.0186735 0)
(2.46977 0.0522963 0)
(1.51734 0.153296 0)
(0.688832 0.347327 0)
(0.590882 0.352012 0)
(0.610605 0.352648 0)
(0.59759 0.372238 0)
(0.54119 0.399791 0)
(0.462364 0.439817 0)
(0.387032 0.484055 0)
(0.308942 0.53298 0)
(0.20807 0.586576 0)
(0.0974893 0.63971 0)
(3 7.6618e-08 0)
(2.99999 4.99892e-07 0)
(2.99998 1.71641e-06 0)
(2.99996 4.86194e-06 0)
(2.9999 1.28232e-05 0)
(2.99974 3.24214e-05 0)
(2.99937 8.02562e-05 0)
(2.99844 0.000202941 0)
(2.99616 0.000487825 0)
(2.99046 0.00124662 0)
(2.97613 0.00301561 0)
(2.93852 0.00779206 0)
(2.83418 0.0203415 0)
(2.52851 0.0570784 0)
(1.65864 0.166067 0)
(0.785461 0.401798 0)
(0.595979 0.396198 0)
(0.62289 0.394892 0)
(0.620301 0.419819 0)
(0.571914 0.451215 0)
(0.502328 0.497584 0)
(0.432054 0.553293 0)
(0.35853 0.617556 0)
(0.26113 0.697793 0)
(0.133195 0.796626 0)
(3 9.35428e-08 0)
(2.99999 5.00548e-07 0)
(2.99999 1.95922e-06 0)
(2.99996 4.92214e-06 0)
(2.99991 1.45224e-05 0)
(2.99977 3.31621e-05 0)
(2.99945 9.11949e-05 0)
(2.99862 0.000206873 0)
(2.99662 0.000554659 0)
(2.99155 0.00128609 0)
(2.97898 0.00336341 0)
(2.94606 0.0082617 0)
(2.85551 0.0220242 0)
(2.59192 0.0609681 0)
(1.82286 0.177115 0)
(0.899944 0.454467 0)
(0.604566 0.440924 0)
(0.641616 0.436411 0)
(0.650634 0.462901 0)
(0.610003 0.500074 0)
(0.551909 0.552389 0)
(0.490561 0.618856 0)
(0.43039 0.704477 0)
(0.353266 0.830653 0)
(0.202502 1.05274 0)
(3 8.97225e-08 0)
(3 5.36081e-07 0)
(2.99999 1.93038e-06 0)
(2.99997 5.25545e-06 0)
(2.99992 1.43206e-05 0)
(2.99981 3.52828e-05 0)
(2.99952 9.05474e-05 0)
(2.99883 0.000220909 0)
(2.99706 0.000557411 0)
(2.9928 0.00137105 0)
(2.98194 0.00344697 0)
(2.9541 0.00869748 0)
(2.87811 0.0228075 0)
(2.65863 0.063219 0)
(2.0082 0.183603 0)
(1.03673 0.499106 0)
(0.628599 0.489557 0)
(0.671345 0.484008 0)
(0.691911 0.50343 0)
(0.658757 0.543941 0)
(0.611655 0.600093 0)
(0.56759 0.675788 0)
(0.53989 0.781142 0)
(0.545836 0.939326 0)
(0.597062 1.20172 0)
(3 7.95876e-08 0)
(3 5.30263e-07 0)
(2.99999 1.74548e-06 0)
(2.99997 5.18194e-06 0)
(2.99993 1.30467e-05 0)
(2.99984 3.43932e-05 0)
(2.9996 8.34555e-05 0)
(2.99901 0.000213548 0)
(2.99758 0.000519494 0)
(2.99396 0.00131402 0)
(2.98509 0.00325024 0)
(2.96221 0.00824488 0)
(2.90103 0.0214488 0)
(2.72708 0.0589186 0)
(2.21114 0.171044 0)
(1.2138 0.492755 0)
(0.696806 0.530381 0)
(0.722786 0.539788 0)
(0.74576 0.545323 0)
(0.721163 0.583323 0)
(0.684343 0.640971 0)
(0.659364 0.72142 0)
(0.665005 0.8335 0)
(0.73077 0.988225 0)
(0.893556 1.19021 0)
(3 7.07384e-08 0)
(3 4.55436e-07 0)
(2.99999 1.52707e-06 0)
(2.99998 4.45117e-06 0)
(2.99995 1.14151e-05 0)
(2.99987 2.92011e-05 0)
(2.99967 7.32839e-05 0)
(2.99919 0.000178495 0)
(2.99798 0.000452992 0)
(2.99508 0.00109061 0)
(2.98772 0.00276794 0)
(2.96927 0.00681799 0)
(2.92045 0.0176339 0)
(2.7839 0.0472715 0)
(2.3852 0.135017 0)
(1.41309 0.404991 0)
(0.788408 0.559988 0)
(0.774539 0.590532 0)
(0.793461 0.594585 0)
(0.787224 0.624887 0)
(0.763426 0.678936 0)
(0.756141 0.755489 0)
(0.784937 0.858701 0)
(0.874603 0.986912 0)
(1.05756 1.11584 0)
(3 6.09932e-08 0)
(3 3.83492e-07 0)
(2.99999 1.34395e-06 0)
(2.99998 3.73946e-06 0)
(2.99996 9.93128e-06 0)
(2.99989 2.50543e-05 0)
(2.99973 6.16823e-05 0)
(2.99932 0.000155812 0)
(2.99834 0.000372175 0)
(2.99589 0.000948801 0)
(2.98986 0.00226239 0)
(2.97459 0.00574616 0)
(2.93473 0.0143485 0)
(2.82401 0.03798 0)
(2.50221 0.105527 0)
(1.62437 0.313685 0)
(0.89273 0.605672 0)
(0.80581 0.636384 0)
(0.825981 0.645914 0)
(0.839681 0.665595 0)
(0.835348 0.712333 0)
(0.844327 0.77945 0)
(0.887565 0.864678 0)
(0.982163 0.962228 0)
(1.15316 1.04457 0)
(3 5.53048e-08 0)
(3 3.41862e-07 0)
(2.99999 1.19991e-06 0)
(2.99999 3.33589e-06 0)
(2.99996 8.90541e-06 0)
(2.99991 2.22632e-05 0)
(2.99978 5.57843e-05 0)
(2.99945 0.000138164 0)
(2.99864 0.000339416 0)
(2.99665 0.000843568 0)
(2.99171 0.00206577 0)
(2.97935 0.00517007 0)
(2.9472 0.012975 0)
(2.85926 0.0340409 0)
(2.60466 0.0940589 0)
(1.87163 0.274322 0)
(1.04508 0.648555 0)
(0.832278 0.670882 0)
(0.850198 0.68236 0)
(0.879101 0.695381 0)
(0.896604 0.735789 0)
(0.919543 0.793621 0)
(0.971013 0.861949 0)
(1.06382 0.934214 0)
(1.21562 0.98998 0)
(3 4.76021e-08 0)
(3 3.16385e-07 0)
(3 1.03998e-06 0)
(2.99999 3.09683e-06 0)
(2.99997 7.80262e-06 0)
(2.99993 2.04664e-05 0)
(2.99982 4.98978e-05 0)
(2.99956 0.000125945 0)
(2.99893 0.00030941 0)
(2.99733 0.000765514 0)
(2.99347 0.00191611 0)
(2.98368 0.00472568 0)
(2.95877 0.0120243 0)
(2.89144 0.0312143 0)
(2.6993 0.0860568 0)
(2.13033 0.249856 0)
(1.23936 0.668137 0)
(0.882239 0.70362 0)
(0.88565 0.713194 0)
(0.919127 0.720101 0)
(0.952401 0.750915 0)
(0.98481 0.800057 0)
(1.0394 0.855581 0)
(1.12746 0.909844 0)
(1.26028 0.949375 0)
(3 4.35569e-08 0)
(3 2.49814e-07 0)
(3 9.25334e-07 0)
(2.99999 2.44377e-06 0)
(2.99998 6.87093e-06 0)
(2.99994 1.63069e-05 0)
(2.99986 4.34481e-05 0)
(2.99967 0.000101038 0)
(2.99917 0.000265124 0)
(2.99799 0.000620348 0)
(2.99502 0.00160943 0)
(2.98777 0.0038517 0)
(2.96931 0.00989134 0)
(2.92096 0.0251142 0)
(2.78712 0.0681578 0)
(2.39678 0.195497 0)
(1.50397 0.570755 0)
(0.993013 0.71339 0)
(0.947832 0.739631 0)
(0.968025 0.750138 0)
(1.00761 0.767749 0)
(1.04578 0.805405 0)
(1.09897 0.849611 0)
(1.17973 0.890778 0)
(1.2952 0.91938 0)
(3 3.27404e-08 0)
(3 2.07565e-07 0)
(3 7.13731e-07 0)
(2.99999 2.01986e-06 0)
(2.99998 5.2862e-06 0)
(2.99996 1.33187e-05 0)
(2.99989 3.30914e-05 0)
(2.99974 8.16307e-05 0)
(2.99936 0.000200276 0)
(2.99845 0.000493303 0)
(2.99616 0.00120518 0)
(2.99058 0.00297497 0)
(2.97647 0.00733808 0)
(2.93995 0.0184789 0)
(2.83969 0.0483682 0)
(2.55109 0.133767 0)
(1.76732 0.40007 0)
(1.10925 0.725268 0)
(0.997948 0.765364 0)
(1.00916 0.783568 0)
(1.05112 0.790464 0)
(1.09743 0.814577 0)
(1.15021 0.847249 0)
(1.22382 0.877795 0)
(1.32447 0.898088 0)
(3 2.56581e-08 0)
(3 1.72721e-07 0)
(3 5.68842e-07 0)
(2.99999 1.68567e-06 0)
(2.99999 4.23013e-06 0)
(2.99997 1.11434e-05 0)
(2.99992 2.65106e-05 0)
(2.99981 6.85946e-05 0)
(2.99952 0.000161349 0)
(2.99883 0.000415503 0)
(2.99708 0.00098043 0)
(2.99287 0.00250893 0)
(2.98221 0.00602801 0)
(2.95499 0.0154389 0)
(2.88136 0.0396444 0)
(2.67102 0.109009 0)
(2.05861 0.318545 0)
(1.2867 0.751346 0)
(1.04536 0.799266 0)
(1.04405 0.814577 0)
(1.084 0.815305 0)
(1.13864 0.823951 0)
(1.19323 0.846232 0)
(1.26124 0.868806 0)
(1.3498 0.883115 0)
(3 2.16436e-08 0)
(3 1.31741e-07 0)
(3 4.68882e-07 0)
(3 1.28856e-06 0)
(2.99999 3.4665e-06 0)
(2.99998 8.59846e-06 0)
(2.99994 2.16872e-05 0)
(2.99986 5.33388e-05 0)
(2.99965 0.00013131 0)
(2.99913 0.000327241 0)
(2.99791 0.00079306 0)
(2.99479 0.00199795 0)
(2.98724 0.00486523 0)
(2.96793 0.0123145 0)
(2.91728 0.0315026 0)
(2.7766 0.0852467 0)
(2.36302 0.245571 0)
(1.55092 0.674724 0)
(1.14338 0.808656 0)
(1.09907 0.832794 0)
(1.12109 0.838776 0)
(1.17494 0.83667 0)
(1.23302 0.848173 0)
(1.29599 0.863412 0)
(1.37384 0.872986 0)
(3 1.62135e-08 0)
(3 1.03184e-07 0)
(3 3.49551e-07 0)
(3 1.00456e-06 0)
(2.99999 2.58896e-06 0)
(2.99998 6.58921e-06 0)
(2.99996 1.63602e-05 0)
(2.9999 4.00183e-05 0)
(2.99975 0.000100032 0)
(2.99938 0.000239771 0)
(2.99847 0.000605926 0)
(2.99627 0.00144333 0)
(2.9908 0.00366046 0)
(2.97719 0.00887005 0)
(2.94191 0.0227071 0)
(2.84625 0.0592637 0)
(2.57153 0.165883 0)
(1.84965 0.491079 0)
(1.27234 0.802816 0)
(1.15659 0.843862 0)
(1.16103 0.860824 0)
(1.20704 0.856761 0)
(1.26712 0.855671 0)
(1.32748 0.862335 0)
(1.39707 0.867326 0)
(3 1.19826e-08 0)
(3 7.85987e-08 0)
(3 2.63339e-07 0)
(3 7.67227e-07 0)
(2.99999 1.95293e-06 0)
(2.99999 5.07031e-06 0)
(2.99997 1.22436e-05 0)
(2.99993 3.10772e-05 0)
(2.99982 7.43775e-05 0)
(2.99956 0.000187507 0)
(2.99891 0.000449441 0)
(2.99734 0.00112893 0)
(2.99343 0.00272894 0)
(2.98377 0.00684852 0)
(2.9591 0.0169404 0)
(2.89319 0.0440926 0)
(2.70749 0.119468 0)
(2.16651 0.351633 0)
(1.45966 0.79937 0)
(1.21634 0.867705 0)
(1.20162 0.882498 0)
(1.23342 0.879117 0)
(1.29261 0.86839 0)
(1.35462 0.866333 0)
(1.4193 0.866485 0)
(3 9.21903e-09 0)
(3 5.6859e-08 0)
(3 1.99614e-07 0)
(3 5.54343e-07 0)
(3 1.47755e-06 0)
(2.99999 3.67842e-06 0)
(2.99998 9.22067e-06 0)
(2.99995 2.26471e-05 0)
(2.99988 5.56344e-05 0)
(2.99969 0.00013742 0)
(2.99926 0.00033386 0)
(2.99817 0.000831271 0)
(2.99557 0.00201425 0)
(2.98902 0.00503513 0)
(2.97289 0.0124115 0)
(2.93083 0.0317958 0)
(2.81673 0.0845992 0)
(2.48523 0.242521 0)
(1.75191 0.663802 0)
(1.3299 0.859209 0)
(1.26054 0.889399 0)
(1.27069 0.89721 0)
(1.31951 0.88527 0)
(1.38055 0.875498 0)
(1.44141 0.870385 0)
(3 6.5844e-09 0)
(3 4.13024e-08 0)
(3 1.42017e-07 0)
(3 4.01844e-07 0)
(3 1.05106e-06 0)
(2.99999 2.63403e-06 0)
(2.99999 6.58102e-06 0)
(2.99996 1.59941e-05 0)
(2.99991 3.97232e-05 0)
(2.99979 9.55164e-05 0)
(2.99949 0.000237813 0)
(2.99874 0.000569549 0)
(2.99693 0.00141919 0)
(2.99243 0.0034237 0)
(2.98136 0.00852005 0)
(2.95297 0.0211302 0)
(2.87718 0.0547072 0)
(2.66273 0.149294 0)
(2.07009 0.437071 0)
(1.47712 0.836638 0)
(1.31617 0.899478 0)
(1.30789 0.914835 0)
(1.34289 0.906114 0)
(1.40191 0.887948 0)
(1.46165 0.877109 0)
(3 4.8433e-09 0)
(3 2.88857e-08 0)
(3 1.03338e-07 0)
(3 2.81322e-07 0)
(3 7.61218e-07 0)
(3 1.85144e-06 0)
(2.99999 4.75951e-06 0)
(2.99998 1.12779e-05 0)
(2.99994 2.86832e-05 0)
(2.99986 6.77813e-05 0)
(2.99965 0.000171085 0)
(2.99915 0.00040737 0)
(2.99794 0.00101963 0)
(2.99493 0.00245476 0)
(2.98761 0.00611375 0)
(2.96909 0.0150466 0)
(2.92083 0.0385369 0)
(2.78845 0.102635 0)
(2.40092 0.296486 0)
(1.72728 0.741376 0)
(1.40552 0.89503 0)
(1.35628 0.922401 0)
(1.37014 0.925109 0)
(1.42057 0.90605 0)
(1.48098 0.887568 0)
(3 3.17063e-09 0)
(3 2.07803e-08 0)
(3 6.89164e-08 0)
(3 2.02071e-07 0)
(3 5.09945e-07 0)
(3 1.31894e-06 0)
(2.99999 3.19533e-06 0)
(2.99998 7.97977e-06 0)
(2.99996 1.93647e-05 0)
(2.99991 4.74331e-05 0)
(2.99977 0.000116526 0)
(2.99944 0.000281328 0)
(2.99863 0.00069987 0)
(2.99668 0.00167549 0)
(2.99185 0.00420325 0)
(2.97993 0.0101706 0)
(2.94942 0.0258357 0)
(2.86817 0.0668117 0)
(2.63678 0.185883 0)
(2.04255 0.530533 0)
(1.54293 0.867259 0)
(1.41409 0.925111 0)
(1.40567 0.93901 0)
(1.43905 0.927565 0)
(1.49569 0.901828 0)
(3 2.16853e-09 0)
(3 1.40696e-08 0)
(3 4.75962e-08 0)
(3 1.36641e-07 0)
(3 3.51371e-07 0)
(3 8.98183e-07 0)
(3 2.18057e-06 0)
(2.99999 5.47215e-06 0)
(2.99997 1.30788e-05 0)
(2.99994 3.27108e-05 0)
(2.99985 7.80785e-05 0)
(2.99964 0.000194637 0)
(2.99911 0.000465765 0)
(2.99785 0.00115866 0)
(2.99469 0.0027911 0)
(2.98708 0.00694054 0)
(2.96775 0.017033 0)
(2.91755 0.0436406 0)
(2.77977 0.116215 0)
(2.38109 0.336919 0)
(1.76846 0.775644 0)
(1.49398 0.916225 0)
(1.44987 0.943233 0)
(1.46162 0.944874 0)
(1.50826 0.922259 0)
(3 1.48333e-09 0)
(3 9.34805e-09 0)
(3 3.22583e-08 0)
(3 9.08121e-08 0)
(3 2.37694e-07 0)
(3 5.97615e-07 0)
(3 1.47128e-06 0)
(2.99999 3.63747e-06 0)
(2.99998 8.79476e-06 0)
(2.99996 2.17722e-05 0)
(2.9999 5.2182e-05 0)
(2.99977 0.00012991 0)
(2.99944 0.000309811 0)
(2.99861 0.000773809 0)
(2.99667 0.00185089 0)
(2.99178 0.00461288 0)
(2.9799 0.0112344 0)
(2.94946 0.0283007 0)
(2.86877 0.0734835 0)
(2.63934 0.204534 0)
(2.07506 0.566041 0)
(1.62558 0.883415 0)
(1.50756 0.942413 0)
(1.49579 0.955526 0)
(1.52292 0.944101 0)
(3 9.86177e-10 0)
(3 6.2363e-09 0)
(3 2.12764e-08 0)
(3 6.0542e-08 0)
(3 1.56431e-07 0)
(3 3.95492e-07 0)
(3 9.73536e-07 0)
(3 2.3848e-06 0)
(2.99999 5.84086e-06 0)
(2.99998 1.41458e-05 0)
(2.99994 3.47318e-05 0)
(2.99985 8.35837e-05 0)
(2.99964 0.000206144 0)
(2.99914 0.000494687 0)
(2.99789 0.00122184 0)
(2.99489 0.00294741 0)
(2.98745 0.00727687 0)
(2.96899 0.0179049 0)
(2.92105 0.0454489 0)
(2.79028 0.121013 0)
(2.41645 0.347195 0)
(1.84778 0.777652 0)
(1.58589 0.926181 0)
(1.53874 0.955374 0)
(1.54523 0.958948 0)
(3 6.51016e-10 0)
(3 4.01264e-09 0)
(3 1.40254e-08 0)
(3 3.88909e-08 0)
(3 1.02995e-07 0)
(3 2.54238e-07 0)
(3 6.37257e-07 0)
(3 1.53833e-06 0)
(2.99999 3.79796e-06 0)
(2.99998 9.15152e-06 0)
(2.99996 2.24375e-05 0)
(2.99991 5.42449e-05 0)
(2.99978 0.000132318 0)
(2.99946 0.00032114 0)
(2.99871 0.000781465 0)
(2.99683 0.00190518 0)
(2.99235 0.00464661 0)
(2.98113 0.0114068 0)
(2.95295 0.0284732 0)
(2.87863 0.0734741 0)
(2.66806 0.20323 0)
(2.15189 0.554326 0)
(1.71856 0.886104 0)
(1.59562 0.952438 0)
(1.57861 0.966912 0)
(3 4.00469e-10 0)
(3 2.59687e-09 0)
(3 8.72469e-09 0)
(3 2.5166e-08 0)
(3 6.42315e-08 0)
(3 1.6395e-07 0)
(3 3.98049e-07 0)
(3 9.87115e-07 0)
(3 2.37705e-06 0)
(2.99999 5.83363e-06 0)
(2.99998 1.40816e-05 0)
(2.99994 3.43192e-05 0)
(2.99987 8.32925e-05 0)
(2.99968 0.000201355 0)
(2.99921 0.000493007 0)
(2.99811 0.00118396 0)
(2.99536 0.00291645 0)
(2.98881 0.0070473 0)
(2.97231 0.0174525 0)
(2.93025 0.0439177 0)
(2.81701 0.115935 0)
(2.49325 0.329976 0)
(1.95515 0.75027 0)
(1.67988 0.924717 0)
(1.62333 0.960433 0)
(3 2.6199e-10 0)
(3 1.57951e-09 0)
(3 5.61142e-09 0)
(3 1.5308e-08 0)
(3 4.10864e-08 0)
(3 1.00192e-07 0)
(3 2.53036e-07 0)
(3 6.04603e-07 0)
(3 1.49956e-06 0)
(2.99999 3.58625e-06 0)
(2.99999 8.79194e-06 0)
(2.99997 2.12082e-05 0)
(2.99992 5.14083e-05 0)
(2.9998 0.000125268 0)
(2.99953 0.000300196 0)
(2.99885 0.000740168 0)
(2.99723 0.00175999 0)
(2.99322 0.00437275 0)
(2.98353 0.0104981 0)
(2.95898 0.0263106 0)
(2.89517 0.0668575 0)
(2.71668 0.182431 0)
(2.26207 0.499135 0)
(1.82234 0.867089 0)
(1.67924 0.950275 0)
(3 1.55979e-10 0)
(3 1.00197e-09 0)
(3 3.37175e-09 0)
(3 9.70338e-09 0)
(3 2.47831e-08 0)
(3 6.28829e-08 0)
(3 1.53585e-07 0)
(3 3.75678e-07 0)
(3 9.16101e-07 0)
(3 2.20227e-06 0)
(2.99999 5.42055e-06 0)
(2.99998 1.28668e-05 0)
(2.99995 3.19208e-05 0)
(2.99989 7.52836e-05 0)
(2.99972 0.000187532 0)
(2.99933 0.000441563 0)
(2.99839 0.00110014 0)
(2.99608 0.00260602 0)
(2.99054 0.00647662 0)
(2.97684 0.0156351 0)
(2.94229 0.0395203 0)
(2.8511 0.10261 0)
(2.59149 0.289 0)
(2.08179 0.691308 0)
(1.77509 0.908809 0)
(3 9.33384e-11 0)
(3 6.10614e-10 0)
(3 2.04765e-09 0)
(3 5.89738e-09 0)
(3 1.50011e-08 0)
(3 3.8324e-08 0)
(3 9.19942e-08 0)
(3 2.30083e-07 0)
(3 5.43241e-07 0)
(3 1.35211e-06 0)
(3 3.18387e-06 0)
(2.99999 7.88449e-06 0)
(2.99997 1.86515e-05 0)
(2.99993 4.58274e-05 0)
(2.99983 0.000109239 0)
(2.99961 0.000265657 0)
(2.99904 0.000640112 0)
(2.9977 0.00154114 0)
(2.99437 0.00375346 0)
(2.9864 0.00904421 0)
(2.96637 0.0223124 0)
(2.915 0.055974 0)
(2.77437 0.149029 0)
(2.3969 0.409874 0)
(1.94221 0.808732 0)
(3 5.89653e-11 0)
(3 3.59674e-10 0)
(3 1.26811e-09 0)
(3 3.47654e-09 0)
(3 9.26591e-09 0)
(3 2.26241e-08 0)
(3 5.67031e-08 0)
(3 1.36063e-07 0)
(3 3.33202e-07 0)
(3 8.03602e-07 0)
(3 1.93945e-06 0)
(2.99999 4.72391e-06 0)
(2.99998 1.12648e-05 0)
(2.99996 2.77177e-05 0)
(2.99991 6.54881e-05 0)
(2.99977 0.000162277 0)
(2.99945 0.000381836 0)
(2.99868 0.000948462 0)
(2.99679 0.00223901 0)
(2.99227 0.00556014 0)
(2.98112 0.0133395 0)
(2.95323 0.0334798 0)
(2.88051 0.0854821 0)
(2.67519 0.235466 0)
(2.21849 0.602344 0)
(3 3.47905e-11 0)
(3 2.13992e-10 0)
(3 7.43644e-10 0)
(3 2.06861e-09 0)
(3 5.43823e-09 0)
(3 1.33798e-08 0)
(3 3.34744e-08 0)
(3 7.97011e-08 0)
(3 1.97631e-07 0)
(3 4.66835e-07 0)
(3 1.15386e-06 0)
(3 2.72577e-06 0)
(2.99999 6.69993e-06 0)
(2.99998 1.5927e-05 0)
(2.99995 3.88431e-05 0)
(2.99987 9.30284e-05 0)
(2.99969 0.000224817 0)
(2.99925 0.000543906 0)
(2.99822 0.00130375 0)
(2.99565 0.0031817 0)
(2.98957 0.00763984 0)
(2.9744 0.0188273 0)
(2.93634 0.046801 0)
(2.83479 0.122765 0)
(2.55251 0.341095 0)
(3 1.95237e-11 0)
(3 1.27719e-10 0)
(3 4.24701e-10 0)
(3 1.23294e-09 0)
(3 3.10501e-09 0)
(3 7.96033e-09 0)
(3 1.90617e-08 0)
(3 4.72532e-08 0)
(3 1.12555e-07 0)
(3 2.74832e-07 0)
(3 6.5864e-07 0)
(3 1.58852e-06 0)
(2.99999 3.84297e-06 0)
(2.99999 9.1691e-06 0)
(2.99997 2.23846e-05 0)
(2.99993 5.29069e-05 0)
(2.99983 0.000130046 0)
(2.99958 0.000305992 0)
(2.99899 0.000753946 0)
(2.99754 0.00177539 0)
(2.99413 0.00437666 0)
(2.98567 0.0104319 0)
(2.96495 0.0258594 0)
(2.91151 0.0647738 0)
(2.76509 0.173787 0)
(3 1.13815e-11 0)
(3 7.38277e-11 0)
(3 2.4775e-10 0)
(3 7.12001e-10 0)
(3 1.80833e-09 0)
(3 4.60298e-09 0)
(3 1.1048e-08 0)
(3 2.73617e-08 0)
(3 6.49712e-08 0)
(3 1.594e-07 0)
(3 3.7842e-07 0)
(3 9.22222e-07 0)
(3 2.20296e-06 0)
(2.99999 5.32253e-06 0)
(2.99998 1.28142e-05 0)
(2.99996 3.069e-05 0)
(2.9999 7.45145e-05 0)
(2.99977 0.000177095 0)
(2.99944 0.000432657 0)
(2.99867 0.00102517 0)
(2.99677 0.00251301 0)
(2.99226 0.00598727 0)
(2.98119 0.0147415 0)
(2.95372 0.0361172 0)
(2.8823 0.0929734 0)
(3 6.6678e-12 0)
(3 4.11347e-11 0)
(3 1.4349e-10 0)
(3 3.96399e-10 0)
(3 1.0452e-09 0)
(3 2.56003e-09 0)
(3 6.36838e-09 0)
(3 1.52474e-08 0)
(3 3.7162e-08 0)
(3 8.90281e-08 0)
(3 2.1446e-07 0)
(3 5.1734e-07 0)
(3 1.23393e-06 0)
(3 2.99773e-06 0)
(2.99999 7.10202e-06 0)
(2.99998 1.73327e-05 0)
(2.99995 4.09046e-05 0)
(2.99987 9.99088e-05 0)
(2.9997 0.000235961 0)
(2.99928 0.000575371 0)
(2.99826 0.00136229 0)
(2.99585 0.00332078 0)
(2.98996 0.00792525 0)
(2.9757 0.0194364 0)
(2.93981 0.0479414 0)
(3 3.68953e-12 0)
(3 2.34842e-11 0)
(3 7.92342e-11 0)
(3 2.26366e-10 0)
(3 5.77959e-10 0)
(3 1.4528e-09 0)
(3 3.52925e-09 0)
(3 8.56754e-09 0)
(3 2.06844e-08 0)
(3 4.94667e-08 0)
(3 1.19954e-07 0)
(3 2.8414e-07 0)
(3 6.92128e-07 0)
(3 1.63283e-06 0)
(2.99999 3.97859e-06 0)
(2.99999 9.39035e-06 0)
(2.99997 2.28277e-05 0)
(2.99993 5.39935e-05 0)
(2.99984 0.00013073 0)
(2.9996 0.000310647 0)
(2.99906 0.000748267 0)
(2.99773 0.00178883 0)
(2.99459 0.00430033 0)
(2.98684 0.010374 0)
(2.96804 0.0252647 0)
(3 2.04977e-12 0)
(3 1.30168e-11 0)
(3 4.43142e-11 0)
(3 1.25129e-10 0)
(3 3.22224e-10 0)
(3 8.06797e-10 0)
(3 1.95301e-09 0)
(3 4.77789e-09 0)
(3 1.13659e-08 0)
(3 2.76852e-08 0)
(3 6.55607e-08 0)
(3 1.59196e-07 0)
(3 3.77503e-07 0)
(3 9.13645e-07 0)
(3 2.17258e-06 0)
(2.99999 5.23482e-06 0)
(2.99998 1.25125e-05 0)
(2.99996 2.99796e-05 0)
(2.99991 7.20353e-05 0)
(2.99979 0.00017169 0)
(2.9995 0.000414939 0)
(2.99881 0.000985383 0)
(2.99711 0.00239236 0)
(2.99314 0.00570608 0)
(2.98333 0.0139193 0)
(3 1.14042e-12 0)
(3 7.01905e-12 0)
(3 2.46467e-11 0)
(3 6.76718e-11 0)
(3 1.78814e-10 0)
(3 4.35585e-10 0)
(3 1.08547e-09 0)
(3 2.57167e-09 0)
(3 6.31267e-09 0)
(3 1.48782e-08 0)
(3 3.62479e-08 0)
(3 8.57538e-08 0)
(3 2.07234e-07 0)
(3 4.93636e-07 0)
(3 1.18255e-06 0)
(3 2.83919e-06 0)
(2.99999 6.7435e-06 0)
(2.99998 1.63141e-05 0)
(2.99995 3.84767e-05 0)
(2.99989 9.35753e-05 0)
(2.99974 0.000219841 0)
(2.99937 0.000535907 0)
(2.99852 0.00125991 0)
(2.99644 0.003071 0)
(2.99155 0.00728708 0)
(3 5.88643e-13 0)
(3 3.86677e-12 0)
(3 1.31043e-11 0)
(3 3.72671e-11 0)
(3 9.48109e-11 0)
(3 2.39642e-10 0)
(3 5.73327e-10 0)
(3 1.41375e-09 0)
(3 3.32694e-09 0)
(3 8.15059e-09 0)
(3 1.91104e-08 0)
(3 4.65995e-08 0)
(3 1.09656e-07 0)
(3 2.65454e-07 0)
(3 6.28361e-07 0)
(3 1.50882e-06 0)
(3 3.60009e-06 0)
(2.99999 8.56119e-06 0)
(2.99998 2.05951e-05 0)
(2.99994 4.85365e-05 0)
(2.99986 0.000117588 0)
(2.99967 0.00027521 0)
(2.99922 0.000669158 0)
(2.99816 0.00156431 0)
(2.99558 0.00380582 0)
(3 3.27018e-13 0)
(3 2.07068e-12 0)
(3 7.01365e-12 0)
(3 1.98673e-11 0)
(3 5.08191e-11 0)
(3 1.27489e-10 0)
(3 3.08456e-10 0)
(3 7.47483e-10 0)
(3 1.79529e-09 0)
(3 4.28198e-09 0)
(3 1.03131e-08 0)
(3 2.43896e-08 0)
(3 5.90464e-08 0)
(3 1.3864e-07 0)
(3 3.36916e-07 0)
(3 7.89121e-07 0)
(3 1.91708e-06 0)
(2.99999 4.49412e-06 0)
(2.99999 1.08792e-05 0)
(2.99997 2.56234e-05 0)
(2.99993 6.16294e-05 0)
(2.99983 0.000146089 0)
(2.9996 0.000348752 0)
(2.99905 0.000833221 0)
(2.99772 0.0019777 0)
(3 1.79714e-13 0)
(3 1.0562e-12 0)
(3 3.72923e-12 0)
(3 1.03453e-11 0)
(3 2.72e-11 0)
(3 6.66112e-11 0)
(3 1.64616e-10 0)
(3 3.91907e-10 0)
(3 9.51365e-10 0)
(3 2.2551e-09 0)
(3 5.43132e-09 0)
(3 1.28898e-08 0)
(3 3.08685e-08 0)
(3 7.35774e-08 0)
(3 1.75204e-07 0)
(3 4.19302e-07 0)
(3 9.93395e-07 0)
(3 2.38859e-06 0)
(2.99999 5.63101e-06 0)
(2.99998 1.35788e-05 0)
(2.99996 3.1965e-05 0)
(2.99991 7.70587e-05 0)
(2.9998 0.00018163 0)
(2.99951 0.000436957 0)
(2.99885 0.00103345 0)
(3 7.36905e-14 0)
(3 5.52811e-13 0)
(3 1.87635e-12 0)
(3 5.52158e-12 0)
(3 1.38991e-11 0)
(3 3.52737e-11 0)
(3 8.4383e-11 0)
(3 2.07115e-10 0)
(3 4.86867e-10 0)
(3 1.18868e-09 0)
(3 2.7797e-09 0)
(3 6.76331e-09 0)
(3 1.58529e-08 0)
(3 3.83473e-08 0)
(3 9.0279e-08 0)
(3 2.1716e-07 0)
(3 5.14467e-07 0)
(3 1.22699e-06 0)
(3 2.92808e-06 0)
(2.99999 6.93516e-06 0)
(2.99998 1.666e-05 0)
(2.99996 3.91491e-05 0)
(2.9999 9.46532e-05 0)
(2.99976 0.000221525 0)
(2.99942 0.000536608 0)
(3 3.40762e-14 0)
(3 3.02582e-13 0)
(3 1.01389e-12 0)
(3 2.8018e-12 0)
(3 7.34075e-12 0)
(3 1.7716e-11 0)
(3 4.40718e-11 0)
(3 1.0368e-10 0)
(3 2.54108e-10 0)
(3 5.94766e-10 0)
(3 1.445e-09 0)
(3 3.38886e-09 0)
(3 8.18174e-09 0)
(3 1.92957e-08 0)
(3 4.61552e-08 0)
(3 1.09806e-07 0)
(3 2.60122e-07 0)
(3 6.24448e-07 0)
(3 1.46486e-06 0)
(3 3.54007e-06 0)
(2.99999 8.26021e-06 0)
(2.99998 2.00089e-05 0)
(2.99995 4.6587e-05 0)
(2.99988 0.000112652 0)
(2.99972 0.0002631 0)
(3 4.35728e-14 0)
(3 1.49799e-13 0)
(3 5.16396e-13 0)
(3 1.38309e-12 0)
(3 3.64611e-12 0)
(3 8.8254e-12 0)
(3 2.17742e-11 0)
(3 5.17991e-11 0)
(3 1.25843e-10 0)
(3 2.96505e-10 0)
(3 7.15456e-10 0)
(3 1.68356e-09 0)
(3 4.04541e-09 0)
(3 9.5415e-09 0)
(3 2.27957e-08 0)
(3 5.3968e-08 0)
(3 1.28241e-07 0)
(3 3.05269e-07 0)
(3 7.19792e-07 0)
(3 1.72254e-06 0)
(3 4.03908e-06 0)
(2.99999 9.6962e-06 0)
(2.99997 2.2648e-05 0)
(2.99994 5.43559e-05 0)
(2.99986 0.000126978 0)
(3 8.68856e-15 0)
(3 4.49842e-14 0)
(3 1.61028e-13 0)
(3 5.62281e-13 0)
(3 1.51852e-12 0)
(3 3.98402e-12 0)
(3 9.67099e-12 0)
(3 2.37949e-11 0)
(3 5.62994e-11 0)
(3 1.35856e-10 0)
(3 3.20483e-10 0)
(3 7.66669e-10 0)
(3 1.81409e-09 0)
(3 4.30765e-09 0)
(3 1.02421e-08 0)
(3 2.41613e-08 0)
(3 5.76835e-08 0)
(3 1.35304e-07 0)
(3 3.2417e-07 0)
(3 7.57095e-07 0)
(3 1.8154e-06 0)
(2.99999 4.23573e-06 0)
(2.99999 1.012e-05 0)
(2.99997 2.36822e-05 0)
(2.99992 5.63031e-05 0)
(3 -1.23186e-14 0)
(3 1.7012e-14 0)
(3 3.91443e-14 0)
(3 1.58902e-13 0)
(3 4.55383e-13 0)
(3 1.10794e-12 0)
(3 2.88053e-12 0)
(3 6.55459e-12 0)
(3 1.64192e-11 0)
(3 3.74569e-11 0)
(3 9.21342e-11 0)
(3 2.1346e-10 0)
(3 5.13218e-10 0)
(3 1.21311e-09 0)
(3 2.84336e-09 0)
(3 6.8551e-09 0)
(3 1.57466e-08 0)
(3 3.85367e-08 0)
(3 8.71911e-08 0)
(3 2.14975e-07 0)
(3 4.83137e-07 0)
(3 1.19206e-06 0)
(2.99999 2.67746e-06 0)
(2.99998 6.55131e-06 0)
(2.99995 1.48817e-05 0)
(1.28588 1.10402 0)
(1.70297 0.900088 0)
(1.8885 0.630598 0)
(1.91504 0.361543 0)
(1.86407 0.136688 0)
(1.76791 -0.0112757 0)
(1.67113 -0.0468766 0)
(1.62489 -0.015578 0)
(1.61901 0.0248953 0)
(1.62333 0.0452921 0)
(1.62934 0.043781 0)
(1.6326 0.0326614 0)
(1.63248 0.0220996 0)
(1.63197 0.0136753 0)
(1.6308 0.0100978 0)
(1.63089 0.0105602 0)
(1.63308 0.0118172 0)
(1.63606 0.012869 0)
(1.63955 0.0133896 0)
(1.644 0.0131211 0)
(1.64906 0.0116529 0)
(1.65419 0.00964889 0)
(1.65957 0.00808711 0)
(1.66535 0.00719447 0)
(1.67154 0.00670038 0)
(1.67808 0.00633447 0)
(1.68491 0.00595396 0)
(1.69197 0.00553204 0)
(1.69924 0.00509596 0)
(1.70669 0.00468279 0)
(1.71432 0.00431452 0)
(1.72208 0.00399774 0)
(1.72996 0.00372848 0)
(1.73792 0.00349784 0)
(1.74592 0.00329954 0)
(1.75381 0.00313712 0)
(1.76145 0.00301738 0)
(1.76769 0.00298291 0)
(1.77243 0.00291478 0)
(1.776 0.00284362 0)
(1.77642 0.00291521 0)
(1.76936 0.00344481 0)
(1.74527 0.00520532 0)
(1.68239 0.00995688 0)
(1.5299 0.0214792 0)
(1.17171 0.0492267 0)
(0.564313 0.120883 0)
(0.134077 0.141161 0)
(0.0670667 0.00120152 0)
(0.217681 -0.109708 0)
(0.365381 -0.126057 0)
(0.472993 -0.110522 0)
(0.572761 -0.0882504 0)
(0.664287 -0.0713506 0)
(0.743525 -0.0568131 0)
(0.813876 -0.0451707 0)
(0.882412 -0.0378972 0)
(0.949605 -0.0348314 0)
(1.01073 -0.0317455 0)
(1.06541 -0.0289625 0)
(1.11525 -0.0263691 0)
(1.16177 -0.023886 0)
(1.20579 -0.0216044 0)
(1.24768 -0.0195792 0)
(1.28773 -0.0178389 0)
(1.32614 -0.0163465 0)
(1.36308 -0.0150516 0)
(1.3987 -0.0138985 0)
(1.43314 -0.0128391 0)
(1.4665 -0.0118499 0)
(1.49891 -0.0109108 0)
(1.53043 -0.0100243 0)
(1.56116 -0.00917513 0)
(1.59113 -0.0083682 0)
(1.62038 -0.00759596 0)
(1.64892 -0.00686251 0)
(1.67679 -0.0061716 0)
(1.70399 -0.00551847 0)
(1.73058 -0.00489935 0)
(1.75654 -0.00429461 0)
(1.78193 -0.00375776 0)
(1.80678 -0.00329249 0)
(1.83114 -0.00288679 0)
(1.85503 -0.00254124 0)
(1.87851 -0.0022537 0)
(1.90153 -0.00205733 0)
(1.92417 -0.0018787 0)
(1.94647 -0.00166919 0)
(1.96849 -0.00143296 0)
(1.99023 -0.00119892 0)
(2.0117 -0.000976909 0)
(2.03288 -0.000773332 0)
(2.05377 -0.000578624 0)
(2.07436 -0.000389789 0)
(2.09462 -0.000195601 0)
(2.11445 1.65657e-05 0)
(2.13362 0.000262513 0)
(2.15143 0.000636163 0)
(2.16668 0.00106132 0)
(2.17825 0.00210215 0)
(1.3761 1.00942 0)
(1.69518 0.721582 0)
(1.87126 0.402366 0)
(1.95637 0.129492 0)
(2.00727 -0.0656366 0)
(2.0382 -0.167429 0)
(2.04828 -0.172416 0)
(2.04766 -0.130787 0)
(2.03516 -0.0821642 0)
(2.0147 -0.0433127 0)
(1.99929 -0.0214783 0)
(1.99562 -0.0152459 0)
(1.99716 -0.0171087 0)
(2.00015 -0.0216141 0)
(2.00354 -0.024279 0)
(2.00571 -0.0246007 0)
(2.0071 -0.0234073 0)
(2.00843 -0.0214327 0)
(2.00986 -0.0193833 0)
(2.01156 -0.0177625 0)
(2.01362 -0.0169635 0)
(2.01643 -0.0166704 0)
(2.01996 -0.0165159 0)
(2.02367 -0.0163191 0)
(2.02735 -0.0160603 0)
(2.03101 -0.0157563 0)
(2.03476 -0.0154255 0)
(2.03866 -0.0150731 0)
(2.04273 -0.014705 0)
(2.04699 -0.0143276 0)